/mnt/lustre/scratch/nvme/SLURM/122918/uscqfafr.bpjI8otnWK
GAUSS_MDEF=1904MB
GAUSS_RDEF=SCF=Direct
 Entering Gaussian System, Link 0=g16.exe
 Initial command:
 /opt/cesga/2020/software/Core/g16/c1/l1.exe "/mnt/lustre/scratch/nvme/SLURM/122918/uscqfafr.bpjI8otnWK/Gau-3812918.inp" -scrdir="/mnt/lustre/scratch/nvme/SLURM/122918/uscqfafr.bpjI8otnWK/"
 Entering Link 1 = /opt/cesga/2020/software/Core/g16/c1/l1.exe PID=   3812940.
  
 Copyright (c) 1988-2019, Gaussian, Inc.  All Rights Reserved.
  
 This is part of the Gaussian(R) 16 program.  It is based on
 the Gaussian(R) 09 system (copyright 2009, Gaussian, Inc.),
 the Gaussian(R) 03 system (copyright 2003, Gaussian, Inc.),
 the Gaussian(R) 98 system (copyright 1998, Gaussian, Inc.),
 the Gaussian(R) 94 system (copyright 1995, Gaussian, Inc.),
 the Gaussian 92(TM) system (copyright 1992, Gaussian, Inc.),
 the Gaussian 90(TM) system (copyright 1990, Gaussian, Inc.),
 the Gaussian 88(TM) system (copyright 1988, Gaussian, Inc.),
 the Gaussian 86(TM) system (copyright 1986, Carnegie Mellon
 University), and the Gaussian 82(TM) system (copyright 1983,
 Carnegie Mellon University). Gaussian is a federally registered
 trademark of Gaussian, Inc.
  
 This software contains proprietary and confidential information,
 including trade secrets, belonging to Gaussian, Inc.
  
 This software is provided under written license and may be
 used, copied, transmitted, or stored only in accord with that
 written license.
  
 The following legend is applicable only to US Government
 contracts under FAR:
  
                    RESTRICTED RIGHTS LEGEND
  
 Use, reproduction and disclosure by the US Government is
 subject to restrictions as set forth in subparagraphs (a)
 and (c) of the Commercial Computer Software - Restricted
 Rights clause in FAR 52.227-19.
  
 Gaussian, Inc.
 340 Quinnipiac St., Bldg. 40, Wallingford CT 06492
  
  
 ---------------------------------------------------------------
 Warning -- This program may not be used in any manner that
 competes with the business of Gaussian, Inc. or will provide
 assistance to any competitor of Gaussian, Inc.  The licensee
 of this program is prohibited from giving any competitor of
 Gaussian, Inc. access to this program.  By using this program,
 the user acknowledges that Gaussian, Inc. is engaged in the
 business of creating and licensing software in the field of
 computational chemistry and represents and warrants to the
 licensee that it is not a competitor of Gaussian, Inc. and that
 it will not use this program in any manner prohibited above.
 ---------------------------------------------------------------
  

 Cite this work as:
 Gaussian 16, Revision C.01,
 M. J. Frisch, G. W. Trucks, H. B. Schlegel, G. E. Scuseria, 
 M. A. Robb, J. R. Cheeseman, G. Scalmani, V. Barone, 
 G. A. Petersson, H. Nakatsuji, X. Li, M. Caricato, A. V. Marenich, 
 J. Bloino, B. G. Janesko, R. Gomperts, B. Mennucci, H. P. Hratchian, 
 J. V. Ortiz, A. F. Izmaylov, J. L. Sonnenberg, D. Williams-Young, 
 F. Ding, F. Lipparini, F. Egidi, J. Goings, B. Peng, A. Petrone, 
 T. Henderson, D. Ranasinghe, V. G. Zakrzewski, J. Gao, N. Rega, 
 G. Zheng, W. Liang, M. Hada, M. Ehara, K. Toyota, R. Fukuda, 
 J. Hasegawa, M. Ishida, T. Nakajima, Y. Honda, O. Kitao, H. Nakai, 
 T. Vreven, K. Throssell, J. A. Montgomery, Jr., J. E. Peralta, 
 F. Ogliaro, M. J. Bearpark, J. J. Heyd, E. N. Brothers, K. N. Kudin, 
 V. N. Staroverov, T. A. Keith, R. Kobayashi, J. Normand, 
 K. Raghavachari, A. P. Rendell, J. C. Burant, S. S. Iyengar, 
 J. Tomasi, M. Cossi, J. M. Millam, M. Klene, C. Adamo, R. Cammi, 
 J. W. Ochterski, R. L. Martin, K. Morokuma, O. Farkas, 
 J. B. Foresman, and D. J. Fox, Gaussian, Inc., Wallingford CT, 2019.
 
 ******************************************
 Gaussian 16:  ES64L-G16RevC.01  3-Jul-2019
                 3-May-2022 
 ******************************************
 Default route: SCF=Direct
 --------------------
 # hf/sto-3g opt freq
 --------------------
 1/18=20,19=15,38=1/1,3;
 2/9=110,12=2,17=6,18=5,40=1/2;
 3/6=3,11=9,25=1,30=1,71=1/1,2,3;
 4//1;
 5/5=2,38=5/2;
 6/7=2,8=2,9=2,10=2,28=1/1;
 7//1,2,3,16;
 1/18=20,19=15/3(2);
 2/9=110/2;
 99//99;
 2/9=110/2;
 3/6=3,11=9,25=1,30=1,71=1/1,2,3;
 4/5=5,16=3,69=1/1;
 5/5=2,38=5/2;
 7//1,2,3,16;
 1/18=20,19=15/3(-5);
 2/9=110/2;
 6/7=2,8=2,9=2,10=2,19=2,28=1/1;
 99/9=1/99;
 --
 --
 --
 Symbolic Z-matrix:
 Charge =  0 Multiplicity = 2
 c
 c                    1    cc2
 h                    1    hc3      2    hcc3
 h                    1    hc4      2    hcc4     3    dih4     0
 h                    1    hc5      2    hcc5     3    dih5     0
 o                    2    oc6      1    occ6     3    dih6     0
 h                    2    hc7      1    hcc7     6    dih7     0
 h                    2    hc8      1    hcc8     6    dih8     0
       Variables:
  cc2                   1.5                      
  hc3                   1.089                    
  hcc3                109.471                    
  hc4                   1.089                    
  hcc4                109.471                    
  dih4                120.                       
  hc5                   1.089                    
  hcc5                109.471                    
  dih5               -120.                       
  oc6                   1.38                     
  occ6                109.471                    
  dih6                180.                       
  hc7                   1.07                     
  hcc7                109.471                    
  dih7                120.                       
  hc8                   1.07                     
  hcc8                109.471                    
  dih8                240.                       
 
     6 tetrahedral angles replaced.

 GradGradGradGradGradGradGradGradGradGradGradGradGradGradGradGradGradGrad
 Berny optimization.
 Initialization pass.
                           ----------------------------
                           !    Initial Parameters    !
                           ! (Angstroms and Degrees)  !
 --------------------------                            --------------------------
 ! Name  Definition              Value          Derivative Info.                !
 --------------------------------------------------------------------------------
 ! R1    R(1,2)                  1.5            estimate D2E/DX2                !
 ! R2    R(1,3)                  1.089          estimate D2E/DX2                !
 ! R3    R(1,4)                  1.089          estimate D2E/DX2                !
 ! R4    R(1,5)                  1.089          estimate D2E/DX2                !
 ! R5    R(2,6)                  1.38           estimate D2E/DX2                !
 ! R6    R(2,7)                  1.07           estimate D2E/DX2                !
 ! R7    R(2,8)                  1.07           estimate D2E/DX2                !
 ! A1    A(2,1,3)              109.4712         estimate D2E/DX2                !
 ! A2    A(2,1,4)              109.4712         estimate D2E/DX2                !
 ! A3    A(2,1,5)              109.4712         estimate D2E/DX2                !
 ! A4    A(3,1,4)              109.4712         estimate D2E/DX2                !
 ! A5    A(3,1,5)              109.4712         estimate D2E/DX2                !
 ! A6    A(4,1,5)              109.4712         estimate D2E/DX2                !
 ! A7    A(1,2,6)              109.4712         estimate D2E/DX2                !
 ! A8    A(1,2,7)              109.4712         estimate D2E/DX2                !
 ! A9    A(1,2,8)              109.4712         estimate D2E/DX2                !
 ! A10   A(6,2,7)              109.4712         estimate D2E/DX2                !
 ! A11   A(6,2,8)              109.4712         estimate D2E/DX2                !
 ! A12   A(7,2,8)              109.4712         estimate D2E/DX2                !
 ! D1    D(3,1,2,6)            180.0            estimate D2E/DX2                !
 ! D2    D(3,1,2,7)            -60.0            estimate D2E/DX2                !
 ! D3    D(3,1,2,8)             60.0            estimate D2E/DX2                !
 ! D4    D(4,1,2,6)            -60.0            estimate D2E/DX2                !
 ! D5    D(4,1,2,7)             60.0            estimate D2E/DX2                !
 ! D6    D(4,1,2,8)            180.0            estimate D2E/DX2                !
 ! D7    D(5,1,2,6)             60.0            estimate D2E/DX2                !
 ! D8    D(5,1,2,7)            180.0            estimate D2E/DX2                !
 ! D9    D(5,1,2,8)            -60.0            estimate D2E/DX2                !
 --------------------------------------------------------------------------------
 Trust Radius=3.00D-01 FncErr=1.00D-07 GrdErr=1.00D-07 EigMax=2.50D+02 EigMin=1.00D-04
 Number of steps in this run=     38 maximum allowed number of steps=    100.
 GradGradGradGradGradGradGradGradGradGradGradGradGradGradGradGradGradGrad

                          Input orientation:                          
 ---------------------------------------------------------------------
 Center     Atomic      Atomic             Coordinates (Angstroms)
 Number     Number       Type             X           Y           Z
 ---------------------------------------------------------------------
      1          6           0        0.000000    0.000000    0.000000
      2          6           0        0.000000    0.000000    1.500000
      3          1           0        1.026719    0.000000   -0.363000
      4          1           0       -0.513360   -0.889165   -0.363000
      5          1           0       -0.513360    0.889165   -0.363000
      6          8           0       -1.301076    0.000000    1.960000
      7          1           0        0.504403   -0.873651    1.856667
      8          1           0        0.504403    0.873651    1.856667
 ---------------------------------------------------------------------
                    Distance matrix (angstroms):
                    1          2          3          4          5
     1  C    0.000000
     2  C    1.500000   0.000000
     3  H    1.089000   2.127186   0.000000
     4  H    1.089000   2.127186   1.778330   0.000000
     5  H    1.089000   2.127186   1.778330   1.778330   0.000000
     6  O    2.352531   1.380000   3.288611   2.609107   2.609107
     7  H    2.113031   1.070000   2.441926   2.441926   3.011691
     8  H    2.113031   1.070000   2.441926   3.011691   2.441926
                    6          7          8
     6  O    0.000000
     7  H    2.008407   0.000000
     8  H    2.008407   1.747303   0.000000
 Stoichiometry    C2H5O(2)
 Framework group  CS[SG(C2HO),X(H4)]
 Deg. of freedom    11
 Full point group                 CS      NOp   2
 Largest Abelian subgroup         CS      NOp   2
 Largest concise Abelian subgroup CS      NOp   2
                         Standard orientation:                         
 ---------------------------------------------------------------------
 Center     Atomic      Atomic             Coordinates (Angstroms)
 Number     Number       Type             X           Y           Z
 ---------------------------------------------------------------------
      1          6           0        1.016744   -0.548129    0.000000
      2          6           0       -0.000000    0.554701    0.000000
      3          1           0        2.017660   -0.119073    0.000000
      4          1           0        0.885364   -1.162983    0.889165
      5          1           0        0.885364   -1.162983   -0.889165
      6          8           0       -1.268378    0.010994    0.000000
      7          1           0        0.129088    1.158828    0.873651
      8          1           0        0.129088    1.158828   -0.873651
 ---------------------------------------------------------------------
 Rotational constants (GHZ):          37.4890256          10.3081477           8.9855221
 Standard basis: STO-3G (5D, 7F)
 There are    15 symmetry adapted cartesian basis functions of A'  symmetry.
 There are     5 symmetry adapted cartesian basis functions of A"  symmetry.
 There are    15 symmetry adapted basis functions of A'  symmetry.
 There are     5 symmetry adapted basis functions of A"  symmetry.
    20 basis functions,    60 primitive gaussians,    20 cartesian basis functions
    13 alpha electrons       12 beta electrons
       nuclear repulsion energy        75.2299011599 Hartrees.
 NAtoms=    8 NActive=    8 NUniq=    6 SFac= 1.78D+00 NAtFMM=   60 NAOKFM=F Big=F
 Integral buffers will be    131072 words long.
 Raffenetti 2 integral format.
 Two-electron integral symmetry is turned on.
 One-electron integrals computed using PRISM.
 NBasis=    20 RedAO= T EigKep=  2.01D-01  NBF=    15     5
 NBsUse=    20 1.00D-06 EigRej= -1.00D+00 NBFU=    15     5
 ExpMin= 1.69D-01 ExpMax= 1.31D+02 ExpMxC= 1.31D+02 IAcc=3 IRadAn=         5 AccDes= 0.00D+00
 Harris functional with IExCor=  205 and IRadAn=       5 diagonalized for initial guess.
 HarFok:  IExCor=  205 AccDes= 0.00D+00 IRadAn=         5 IDoV= 1 UseB2=F ITyADJ=14
 ICtDFT=  3500011 ScaDFX=  1.000000  1.000000  1.000000  1.000000
 FoFCou: FMM=F IPFlag=           0 FMFlag=      100000 FMFlg1=           0
         NFxFlg=           0 DoJE=T BraDBF=F KetDBF=T FulRan=T
         wScrn=  0.000000 ICntrl=       500 IOpCl=  0 I1Cent=   200000004 NGrid=           0
         NMat0=    1 NMatS0=      1 NMatT0=    0 NMatD0=    1 NMtDS0=    0 NMtDT0=    0
 Petite list used in FoFCou.
 Initial guess orbital symmetries:
 Alpha Orbitals:
       Occupied  (A') (A') (A') (A') (A') (A') (A") (A') (A') (A")
                 (A') (A') (A")
       Virtual   (A') (A') (A") (A') (A') (A") (A')
 Beta  Orbitals:
       Occupied  (A') (A') (A') (A') (A') (A') (A") (A') (A') (A")
                 (A') (A')
       Virtual   (A") (A') (A') (A") (A') (A') (A") (A')
 The electronic state of the initial guess is 2-A".
 Initial guess <Sx>= 0.0000 <Sy>= 0.0000 <Sz>= 0.5000 <S**2>= 0.7500 S= 0.5000
 Keep R1 and R2 ints in memory in symmetry-blocked form, NReq=835117.
 Requested convergence on RMS density matrix=1.00D-08 within 128 cycles.
 Requested convergence on MAX density matrix=1.00D-06.
 Requested convergence on             energy=1.00D-06.
 No special actions if energy rises.
 SCF Done:  E(UHF) =  -151.535844954     A.U. after   14 cycles
            NFock= 14  Conv=0.51D-08     -V/T= 2.0070
 <Sx>= 0.0000 <Sy>= 0.0000 <Sz>= 0.5000 <S**2>= 0.7542 S= 0.5021
 <L.S>=  0.00000000000    
 Annihilation of the first spin contaminant:
 S**2 before annihilation     0.7542,   after     0.7500

 **********************************************************************

            Population analysis using the SCF Density.

 **********************************************************************

 Orbital symmetries:
 Alpha Orbitals:
       Occupied  (A') (A') (A') (A') (A') (A') (A") (A') (A') (A")
                 (A') (A") (A')
       Virtual   (A') (A") (A') (A') (A') (A') (A")
 Beta  Orbitals:
       Occupied  (A') (A') (A') (A') (A') (A') (A") (A') (A') (A")
                 (A') (A')
       Virtual   (A") (A') (A") (A') (A') (A') (A') (A")
 The electronic state is 2-A".
 Alpha  occ. eigenvalues --  -20.28355 -11.09696 -11.04096  -1.32271  -0.97524
 Alpha  occ. eigenvalues --   -0.80095  -0.65429  -0.58411  -0.52964  -0.51802
 Alpha  occ. eigenvalues --   -0.47624  -0.43487  -0.36970
 Alpha virt. eigenvalues --    0.60879   0.64630   0.69696   0.72161   0.76858
 Alpha virt. eigenvalues --    0.78154   0.78878
  Beta  occ. eigenvalues --  -20.25537 -11.10032 -11.04081  -1.19338  -0.95484
  Beta  occ. eigenvalues --   -0.78606  -0.61375  -0.57062  -0.51985  -0.48244
  Beta  occ. eigenvalues --   -0.44774  -0.32892
  Beta virt. eigenvalues --    0.34496   0.62650   0.65670   0.69535   0.72784
  Beta virt. eigenvalues --    0.77450   0.79105   0.80182
          Condensed to atoms (all electrons):
               1          2          3          4          5          6
     1  C    4.750568   0.359815   0.382492   0.385311   0.385311  -0.024663
     2  C    0.359815   4.731628  -0.020732  -0.023048  -0.023048   0.243503
     3  H    0.382492  -0.020732   0.621379  -0.020209  -0.020209   0.000771
     4  H    0.385311  -0.023048  -0.020209   0.616483  -0.020814  -0.000869
     5  H    0.385311  -0.023048  -0.020209  -0.020814   0.616483  -0.000869
     6  O   -0.024663   0.243503   0.000771  -0.000869  -0.000869   7.942657
     7  H   -0.027437   0.379977  -0.001946  -0.002827   0.002134  -0.015911
     8  H   -0.027437   0.379977  -0.001946   0.002134  -0.002827  -0.015911
               7          8
     1  C   -0.027437  -0.027437
     2  C    0.379977   0.379977
     3  H   -0.001946  -0.001946
     4  H   -0.002827   0.002134
     5  H    0.002134  -0.002827
     6  O   -0.015911  -0.015911
     7  H    0.609756  -0.020074
     8  H   -0.020074   0.609756
          Atomic-Atomic Spin Densities.
               1          2          3          4          5          6
     1  C    0.005345   0.004000   0.000004  -0.000364  -0.000364  -0.000177
     2  C    0.004000  -0.125305   0.000434   0.000376   0.000376  -0.016022
     3  H    0.000004   0.000434  -0.003319   0.000154   0.000154   0.000002
     4  H   -0.000364   0.000376   0.000154  -0.001386   0.000032   0.000082
     5  H   -0.000364   0.000376   0.000154   0.000032  -0.001386   0.000082
     6  O   -0.000177  -0.016022   0.000002   0.000082   0.000082   1.066645
     7  H   -0.000192   0.003936   0.000015  -0.000177   0.000052  -0.005476
     8  H   -0.000192   0.003936   0.000015   0.000052  -0.000177  -0.005476
               7          8
     1  C   -0.000192  -0.000192
     2  C    0.003936   0.003936
     3  H    0.000015   0.000015
     4  H   -0.000177   0.000052
     5  H    0.000052  -0.000177
     6  O   -0.005476  -0.005476
     7  H    0.050635  -0.006019
     8  H   -0.006019   0.050635
 Mulliken charges and spin densities:
               1          2
     1  C   -0.183958   0.008061
     2  C   -0.028071  -0.128269
     3  H    0.060400  -0.002541
     4  H    0.063840  -0.001231
     5  H    0.063840  -0.001231
     6  O   -0.128709   1.039662
     7  H    0.076329   0.042774
     8  H    0.076329   0.042774
 Sum of Mulliken charges =  -0.00000   1.00000
 Mulliken charges and spin densities with hydrogens summed into heavy atoms:
               1          2
     1  C    0.004121   0.003058
     2  C    0.124587  -0.042720
     6  O   -0.128709   1.039662
 Electronic spatial extent (au):  <R**2>=            172.2203
 Charge=             -0.0000 electrons
 Dipole moment (field-independent basis, Debye):
    X=              1.1654    Y=              0.5428    Z=              0.0000  Tot=              1.2856
 Quadrupole moment (field-independent basis, Debye-Ang):
   XX=            -19.9637   YY=            -17.6513   ZZ=            -16.7532
   XY=              0.0914   XZ=              0.0000   YZ=             -0.0000
 Traceless Quadrupole moment (field-independent basis, Debye-Ang):
   XX=             -1.8409   YY=              0.4714   ZZ=              1.3695
   XY=              0.0914   XZ=              0.0000   YZ=             -0.0000
 Octapole moment (field-independent basis, Debye-Ang**2):
  XXX=             -3.7847  YYY=              0.3931  ZZZ=              0.0000  XYY=             -2.2918
  XXY=              0.5401  XXZ=              0.0000  XZZ=             -3.0040  YZZ=              0.1083
  YYZ=              0.0000  XYZ=             -0.0000
 Hexadecapole moment (field-independent basis, Debye-Ang**3):
 XXXX=           -114.7432 YYYY=            -55.8254 ZZZZ=            -25.6729 XXXY=             14.8195
 XXXZ=              0.0000 YYYX=             13.2998 YYYZ=             -0.0000 ZZZX=             -0.0000
 ZZZY=             -0.0000 XXYY=            -28.9270 XXZZ=            -22.7178 YYZZ=            -11.9160
 XXYZ=             -0.0000 YYXZ=              0.0000 ZZXY=              4.1130
 N-N= 7.522990115989D+01 E-N=-5.066263842406D+02  KE= 1.504762141998D+02
 Symmetry A'   KE= 1.439956544131D+02
 Symmetry A"   KE= 6.480559786669D+00
 Symmetry A'   SP= 3.070482547270D-14
 Symmetry A"   SP= 1.000000000000D+00
                          Isotropic Fermi Contact Couplings
        Atom                 a.u.       MegaHertz       Gauss      10(-4) cm-1
     1  C(13)              0.00153       1.72491       0.61549       0.57537
     2  C(13)             -0.04607     -51.79095     -18.48030     -17.27560
     3  H(1)              -0.00124      -5.55208      -1.98112      -1.85197
     4  H(1)              -0.00056      -2.52332      -0.90038      -0.84169
     5  H(1)              -0.00056      -2.52332      -0.90038      -0.84169
     6  O(17)              0.08983     -54.45477     -19.43082     -18.16416
     7  H(1)               0.01961      87.65297      31.27676      29.23788
     8  H(1)               0.01961      87.65297      31.27676      29.23788
 --------------------------------------------------------
       Center         ----  Spin Dipole Couplings  ----
                      3XX-RR        3YY-RR        3ZZ-RR
 --------------------------------------------------------
     1   Atom        0.018453     -0.009528     -0.008925
     2   Atom        0.042182     -0.006139     -0.036043
     3   Atom        0.007362     -0.003741     -0.003621
     4   Atom        0.008480     -0.003588     -0.004891
     5   Atom        0.008480     -0.003588     -0.004891
     6   Atom       -1.301966     -1.418210      2.720175
     7   Atom        0.015004     -0.000176     -0.014828
     8   Atom        0.015004     -0.000176     -0.014828
 --------------------------------------------------------
                        XY            XZ            YZ
 --------------------------------------------------------
     1   Atom       -0.005561      0.000000      0.000000
     2   Atom        0.019668      0.000000     -0.000000
     3   Atom        0.000081      0.000000     -0.000000
     4   Atom       -0.008409      0.005589     -0.002954
     5   Atom       -0.008409     -0.005589      0.002954
     6   Atom        0.059138      0.000000      0.000000
     7   Atom        0.018916      0.011721      0.000209
     8   Atom        0.018916     -0.011721     -0.000209
 --------------------------------------------------------


 ---------------------------------------------------------------------------------
              Anisotropic Spin Dipole Couplings in Principal Axis System
 ---------------------------------------------------------------------------------

       Atom             a.u.   MegaHertz   Gauss  10(-4) cm-1        Axes

              Baa    -0.0106    -1.421    -0.507    -0.474  0.1880  0.9822 -0.0000
     1 C(13)  Bbb    -0.0089    -1.198    -0.427    -0.400  0.0000  0.0000  1.0000
              Bcc     0.0195     2.619     0.935     0.874  0.9822 -0.1880 -0.0000
 
              Baa    -0.0360    -4.837    -1.726    -1.613 -0.0000  0.0000  1.0000
     2 C(13)  Bbb    -0.0131    -1.762    -0.629    -0.588 -0.3350  0.9422 -0.0000
              Bcc     0.0492     6.599     2.355     2.201  0.9422  0.3350 -0.0000
 
              Baa    -0.0037    -1.996    -0.712    -0.666 -0.0073  1.0000  0.0000
     3 H(1)   Bbb    -0.0036    -1.932    -0.689    -0.644 -0.0000 -0.0000  1.0000
              Bcc     0.0074     3.929     1.402     1.310  1.0000  0.0073  0.0000
 
              Baa    -0.0079    -4.220    -1.506    -1.408  0.4364  0.8970  0.0701
     4 H(1)   Bbb    -0.0069    -3.688    -1.316    -1.230 -0.3044  0.0739  0.9497
              Bcc     0.0148     7.908     2.822     2.638  0.8467 -0.4357  0.3053
 
              Baa    -0.0079    -4.220    -1.506    -1.408  0.4364  0.8970 -0.0701
     5 H(1)   Bbb    -0.0069    -3.688    -1.316    -1.230  0.3044 -0.0739  0.9497
              Bcc     0.0148     7.908     2.822     2.638  0.8467 -0.4357 -0.3053
 
              Baa    -1.4430   104.415    37.258    34.829 -0.3867  0.9222 -0.0000
     6 O(17)  Bbb    -1.2772    92.415    32.976    30.826  0.9222  0.3867 -0.0000
              Bcc     2.7202  -196.830   -70.234   -65.655  0.0000  0.0000  1.0000
 
              Baa    -0.0215   -11.497    -4.102    -3.835 -0.4611  0.4004  0.7918
     7 H(1)   Bbb    -0.0084    -4.508    -1.608    -1.504 -0.3238  0.7549 -0.5703
              Bcc     0.0300    16.005     5.711     5.339  0.8261  0.5194  0.2184
 
              Baa    -0.0215   -11.497    -4.102    -3.835  0.4611 -0.4004  0.7918
     8 H(1)   Bbb    -0.0084    -4.508    -1.608    -1.504 -0.3238  0.7549  0.5703
              Bcc     0.0300    16.005     5.711     5.339  0.8261  0.5194 -0.2184
 

 ---------------------------------------------------------------------------------

 Calling FoFJK, ICntrl=      2127 FMM=F ISym2X=1 I1Cent= 0 IOpClX= 1 NMat=1 NMatS=1 NMatT=0.
 ***** Axes restored to original set *****
 -------------------------------------------------------------------
 Center     Atomic                   Forces (Hartrees/Bohr)
 Number     Number              X              Y              Z
 -------------------------------------------------------------------
      1        6           0.010836340   -0.000000000   -0.036297516
      2        6           0.027090271    0.000000000   -0.015403539
      3        1          -0.004565963   -0.000000000   -0.004550288
      4        1           0.002116638    0.004232485   -0.002647323
      5        1           0.002116638   -0.004232485   -0.002647323
      6        8          -0.063358859    0.000000000    0.035824534
      7        1           0.012882467   -0.016397557    0.012860727
      8        1           0.012882467    0.016397557    0.012860727
 -------------------------------------------------------------------
 Cartesian Forces:  Max     0.063358859 RMS     0.019369930

 GradGradGradGradGradGradGradGradGradGradGradGradGradGradGradGradGradGrad
 Berny optimization.
 FormGI is forming the generalized inverse of G from B-inverse, IUseBI=4.
 Internal  Forces:  Max     0.071676816 RMS     0.018326330
 Search for a local minimum.
 Step number   1 out of a maximum of   38
 All quantities printed in internal units (Hartrees-Bohrs-Radians)
 Mixed Optimization -- RFO/linear search
 Second derivative matrix not updated -- first step.
 ITU=  0
     Eigenvalues ---    0.00766   0.06065   0.06065   0.06065   0.06318
     Eigenvalues ---    0.16000   0.16000   0.16000   0.16000   0.16000
     Eigenvalues ---    0.22465   0.32377   0.34928   0.34928   0.34928
     Eigenvalues ---    0.37230   0.37230   0.49102
 RFO step:  Lambda=-2.36431915D-02 EMin= 7.65947526D-03
 Linear search not attempted -- first point.
 Iteration  1 RMS(Cart)=  0.08042197 RMS(Int)=  0.00170061
 Iteration  2 RMS(Cart)=  0.00165703 RMS(Int)=  0.00067874
 Iteration  3 RMS(Cart)=  0.00000525 RMS(Int)=  0.00067873
 Iteration  4 RMS(Cart)=  0.00000000 RMS(Int)=  0.00067873
 ClnCor:  largest displacement from symmetrization is 3.45D-11 for atom     5.
 Variable       Old X    -DE/DX   Delta X   Delta X   Delta X     New X
                                 (Linear)    (Quad)   (Total)
    R1        2.83459   0.04614   0.00000   0.13282   0.13282   2.96741
    R2        2.05791  -0.00279   0.00000  -0.00748  -0.00748   2.05044
    R3        2.05791  -0.00357   0.00000  -0.00958  -0.00958   2.04834
    R4        2.05791  -0.00357   0.00000  -0.00958  -0.00958   2.04834
    R5        2.60782   0.07168   0.00000   0.13927   0.13927   2.74709
    R6        2.02201   0.02375   0.00000   0.05998   0.05998   2.08199
    R7        2.02201   0.02375   0.00000   0.05998   0.05998   2.08199
    A1        1.91063   0.00694   0.00000   0.03937   0.03888   1.94951
    A2        1.91063   0.00371   0.00000   0.01941   0.01911   1.92974
    A3        1.91063   0.00371   0.00000   0.01941   0.01911   1.92974
    A4        1.91063  -0.00502   0.00000  -0.02576  -0.02623   1.88440
    A5        1.91063  -0.00502   0.00000  -0.02576  -0.02623   1.88440
    A6        1.91063  -0.00432   0.00000  -0.02665  -0.02675   1.88388
    A7        1.91063   0.02282   0.00000   0.09772   0.09589   2.00652
    A8        1.91063   0.00214   0.00000   0.01297   0.01208   1.92271
    A9        1.91063   0.00214   0.00000   0.01297   0.01208   1.92271
   A10        1.91063  -0.01018   0.00000  -0.03411  -0.03579   1.87484
   A11        1.91063  -0.01018   0.00000  -0.03411  -0.03579   1.87484
   A12        1.91063  -0.00674   0.00000  -0.05543  -0.05525   1.85539
    D1        3.14159   0.00000   0.00000  -0.00000   0.00000   3.14159
    D2       -1.04720   0.00282   0.00000   0.02600   0.02648  -1.02072
    D3        1.04720  -0.00282   0.00000  -0.02600  -0.02648   1.02072
    D4       -1.04720   0.00037   0.00000   0.00444   0.00453  -1.04267
    D5        1.04720   0.00319   0.00000   0.03044   0.03101   1.07821
    D6        3.14159  -0.00244   0.00000  -0.02157  -0.02195   3.11965
    D7        1.04720  -0.00037   0.00000  -0.00444  -0.00453   1.04267
    D8        3.14159   0.00244   0.00000   0.02157   0.02195  -3.11965
    D9       -1.04720  -0.00319   0.00000  -0.03044  -0.03101  -1.07821
         Item               Value     Threshold  Converged?
 Maximum Force            0.071677     0.000450     NO 
 RMS     Force            0.018326     0.000300     NO 
 Maximum Displacement     0.274746     0.001800     NO 
 RMS     Displacement     0.080999     0.001200     NO 
 Predicted change in Energy=-1.265453D-02
 GradGradGradGradGradGradGradGradGradGradGradGradGradGradGradGradGradGrad

                          Input orientation:                          
 ---------------------------------------------------------------------
 Center     Atomic      Atomic             Coordinates (Angstroms)
 Number     Number       Type             X           Y           Z
 ---------------------------------------------------------------------
      1          6           0        0.012051   -0.000000   -0.050050
      2          6           0       -0.021210   -0.000000    1.519880
      3          1           0        1.028480   -0.000000   -0.429775
      4          1           0       -0.491173   -0.876579   -0.441567
      5          1           0       -0.491173    0.876579   -0.441567
      6          8           0       -1.351780   -0.000000    2.105389
      7          1           0        0.511267   -0.881655    1.911012
      8          1           0        0.511267    0.881655    1.911012
 ---------------------------------------------------------------------
                    Distance matrix (angstroms):
                    1          2          3          4          5
     1  C    0.000000
     2  C    1.570283   0.000000
     3  H    1.085044   2.214273   0.000000
     4  H    1.083933   2.199212   1.754388   0.000000
     5  H    1.083933   2.199212   1.754388   1.753157   0.000000
     6  O    2.550677   1.453698   3.477455   2.827724   2.827724
     7  H    2.207328   1.101739   2.554233   2.557253   3.103369
     8  H    2.207328   1.101739   2.554233   3.103369   2.557253
                    6          7          8
     6  O    0.000000
     7  H    2.070275   0.000000
     8  H    2.070275   1.763309   0.000000
 Stoichiometry    C2H5O(2)
 Framework group  CS[SG(C2HO),X(H4)]
 Deg. of freedom    11
 Full point group                 CS      NOp   2
 Largest Abelian subgroup         CS      NOp   2
 Largest concise Abelian subgroup CS      NOp   2
                         Standard orientation:                         
 ---------------------------------------------------------------------
 Center     Atomic      Atomic             Coordinates (Angstroms)
 Number     Number       Type             X           Y           Z
 ---------------------------------------------------------------------
      1          6           0        1.101552   -0.578748    0.000000
      2          6           0        0.000000    0.540347    0.000000
      3          1           0        2.101456   -0.157427    0.000000
      4          1           0        1.004199   -1.208860    0.876579
      5          1           0        1.004199   -1.208860   -0.876579
      6          8           0       -1.369619    0.053130    0.000000
      7          1           0        0.118895    1.190254    0.881655
      8          1           0        0.118895    1.190254   -0.881655
 ---------------------------------------------------------------------
 Rotational constants (GHZ):          37.8401944           8.8765461           7.8893224
 Standard basis: STO-3G (5D, 7F)
 There are    15 symmetry adapted cartesian basis functions of A'  symmetry.
 There are     5 symmetry adapted cartesian basis functions of A"  symmetry.
 There are    15 symmetry adapted basis functions of A'  symmetry.
 There are     5 symmetry adapted basis functions of A"  symmetry.
    20 basis functions,    60 primitive gaussians,    20 cartesian basis functions
    13 alpha electrons       12 beta electrons
       nuclear repulsion energy        71.9855195727 Hartrees.
 NAtoms=    8 NActive=    8 NUniq=    6 SFac= 1.78D+00 NAtFMM=   60 NAOKFM=F Big=F
 Integral buffers will be    131072 words long.
 Raffenetti 2 integral format.
 Two-electron integral symmetry is turned on.
 One-electron integrals computed using PRISM.
 NBasis=    20 RedAO= T EigKep=  2.17D-01  NBF=    15     5
 NBsUse=    20 1.00D-06 EigRej= -1.00D+00 NBFU=    15     5
 Initial guess from the checkpoint file:  "/mnt/lustre/scratch/nvme/SLURM/122918/uscqfafr.bpjI8otnWK/Gau-3812940.chk"
 B after Tr=     0.000000   -0.000000    0.000000
         Rot=    0.999997   -0.000000    0.000000    0.002322 Ang=   0.27 deg.
 Initial guess orbital symmetries:
 Alpha Orbitals:
       Occupied  (A') (A') (A') (A') (A') (A') (A") (A') (A') (A")
                 (A') (A") (A')
       Virtual   (A') (A") (A') (A') (A') (A') (A")
 Beta  Orbitals:
       Occupied  (A') (A') (A') (A') (A') (A') (A") (A') (A') (A")
                 (A') (A')
       Virtual   (A") (A') (A") (A') (A') (A') (A') (A")
 Initial guess <Sx>= 0.0000 <Sy>= 0.0000 <Sz>= 0.5000 <S**2>= 0.7548 S= 0.5024
 ExpMin= 1.69D-01 ExpMax= 1.31D+02 ExpMxC= 1.31D+02 IAcc=3 IRadAn=         5 AccDes= 0.00D+00
 Harris functional with IExCor=  205 and IRadAn=       5 diagonalized for initial guess.
 HarFok:  IExCor=  205 AccDes= 0.00D+00 IRadAn=         5 IDoV= 1 UseB2=F ITyADJ=14
 ICtDFT=  3500011 ScaDFX=  1.000000  1.000000  1.000000  1.000000
 FoFCou: FMM=F IPFlag=           0 FMFlag=      100000 FMFlg1=           0
         NFxFlg=           0 DoJE=T BraDBF=F KetDBF=T FulRan=T
         wScrn=  0.000000 ICntrl=       500 IOpCl=  0 I1Cent=   200000004 NGrid=           0
         NMat0=    1 NMatS0=      1 NMatT0=    0 NMatD0=    1 NMtDS0=    0 NMtDT0=    0
 Petite list used in FoFCou.
 Keep R1 and R2 ints in memory in symmetry-blocked form, NReq=835085.
 Requested convergence on RMS density matrix=1.00D-08 within 128 cycles.
 Requested convergence on MAX density matrix=1.00D-06.
 Requested convergence on             energy=1.00D-06.
 No special actions if energy rises.
 SCF Done:  E(UHF) =  -151.543383226     A.U. after   14 cycles
            NFock= 14  Conv=0.36D-08     -V/T= 2.0086
 <Sx>= 0.0000 <Sy>= 0.0000 <Sz>= 0.5000 <S**2>= 0.7561 S= 0.5030
 <L.S>=  0.00000000000    
 Annihilation of the first spin contaminant:
 S**2 before annihilation     0.7561,   after     0.7500
 Calling FoFJK, ICntrl=      2127 FMM=F ISym2X=1 I1Cent= 0 IOpClX= 1 NMat=1 NMatS=1 NMatT=0.
 ***** Axes restored to original set *****
 -------------------------------------------------------------------
 Center     Atomic                   Forces (Hartrees/Bohr)
 Number     Number              X              Y              Z
 -------------------------------------------------------------------
      1        6          -0.006072400   -0.000000000    0.013560030
      2        6           0.003988277    0.000000000   -0.003310142
      3        1           0.002424769   -0.000000000    0.004549654
      4        1          -0.001274619   -0.002078824    0.000635233
      5        1          -0.001274619    0.002078824    0.000635233
      6        8           0.009024567    0.000000000   -0.008776615
      7        1          -0.003407988    0.002988002   -0.003646697
      8        1          -0.003407988   -0.002988002   -0.003646697
 -------------------------------------------------------------------
 Cartesian Forces:  Max     0.013560030 RMS     0.004623508

 GradGradGradGradGradGradGradGradGradGradGradGradGradGradGradGradGradGrad
 Berny optimization.
 Using GEDIIS/GDIIS optimizer.
 FormGI is forming the generalized inverse of G from B-inverse, IUseBI=4.
 Internal  Forces:  Max     0.019507058 RMS     0.005233975
 Search for a local minimum.
 Step number   2 out of a maximum of   38
 All quantities printed in internal units (Hartrees-Bohrs-Radians)
 Mixed Optimization -- RFO/linear search
 Update second derivatives using D2CorX and points    1    2
 DE= -7.54D-03 DEPred=-1.27D-02 R= 5.96D-01
 TightC=F SS=  1.41D+00  RLast= 2.61D-01 DXNew= 5.0454D-01 7.8365D-01
 Trust test= 5.96D-01 RLast= 2.61D-01 DXMaxT set to 5.05D-01
 ITU=  1  0
 Use linear search instead of GDIIS.
     Eigenvalues ---    0.00766   0.05348   0.05737   0.05870   0.06294
     Eigenvalues ---    0.15940   0.16000   0.16000   0.16000   0.16593
     Eigenvalues ---    0.23157   0.34754   0.34925   0.34928   0.35382
     Eigenvalues ---    0.37230   0.39875   0.53507
 RFO step:  Lambda=-3.89922941D-04 EMin= 7.65947526D-03
 Quartic linear search produced a step of -0.25604.
 Iteration  1 RMS(Cart)=  0.02661984 RMS(Int)=  0.00019523
 Iteration  2 RMS(Cart)=  0.00018597 RMS(Int)=  0.00008305
 Iteration  3 RMS(Cart)=  0.00000001 RMS(Int)=  0.00008305
 ClnCor:  largest displacement from symmetrization is 7.00D-14 for atom     5.
 Variable       Old X    -DE/DX   Delta X   Delta X   Delta X     New X
                                 (Linear)    (Quad)   (Total)
    R1        2.96741  -0.01951  -0.03401  -0.01170  -0.04570   2.92170
    R2        2.05044   0.00068   0.00191  -0.00043   0.00148   2.05192
    R3        2.04834   0.00204   0.00245   0.00194   0.00440   2.05273
    R4        2.04834   0.00204   0.00245   0.00194   0.00440   2.05273
    R5        2.74709  -0.01180  -0.03566   0.01806  -0.01759   2.72950
    R6        2.08199  -0.00533  -0.01536   0.00449  -0.01086   2.07112
    R7        2.08199  -0.00533  -0.01536   0.00449  -0.01086   2.07112
    A1        1.94951  -0.00685  -0.00995  -0.02615  -0.03614   1.91337
    A2        1.92974  -0.00048  -0.00489   0.00341  -0.00149   1.92825
    A3        1.92974  -0.00048  -0.00489   0.00341  -0.00149   1.92825
    A4        1.88440   0.00345   0.00672   0.00728   0.01395   1.89835
    A5        1.88440   0.00345   0.00672   0.00728   0.01395   1.89835
    A6        1.88388   0.00134   0.00685   0.00595   0.01282   1.89671
    A7        2.00652  -0.00802  -0.02455  -0.00776  -0.03208   1.97444
    A8        1.92271  -0.00047  -0.00309   0.00060  -0.00240   1.92031
    A9        1.92271  -0.00047  -0.00309   0.00060  -0.00240   1.92031
   A10        1.87484   0.00373   0.00916  -0.00151   0.00786   1.88270
   A11        1.87484   0.00373   0.00916  -0.00151   0.00786   1.88270
   A12        1.85539   0.00243   0.01415   0.01100   0.02511   1.88049
    D1        3.14159   0.00000   0.00000   0.00000   0.00000   3.14159
    D2       -1.02072  -0.00120  -0.00678  -0.00708  -0.01393  -1.03465
    D3        1.02072   0.00120   0.00678   0.00708   0.01393   1.03465
    D4       -1.04267  -0.00052  -0.00116  -0.00590  -0.00704  -1.04970
    D5        1.07821  -0.00173  -0.00794  -0.01298  -0.02097   1.05724
    D6        3.11965   0.00068   0.00562   0.00118   0.00689   3.12653
    D7        1.04267   0.00052   0.00116   0.00590   0.00704   1.04970
    D8       -3.11965  -0.00068  -0.00562  -0.00118  -0.00689  -3.12653
    D9       -1.07821   0.00173   0.00794   0.01298   0.02097  -1.05724
         Item               Value     Threshold  Converged?
 Maximum Force            0.019507     0.000450     NO 
 RMS     Force            0.005234     0.000300     NO 
 Maximum Displacement     0.075361     0.001800     NO 
 RMS     Displacement     0.026742     0.001200     NO 
 Predicted change in Energy=-9.046576D-04
 GradGradGradGradGradGradGradGradGradGradGradGradGradGradGradGradGradGrad

                          Input orientation:                          
 ---------------------------------------------------------------------
 Center     Atomic      Atomic             Coordinates (Angstroms)
 Number     Number       Type             X           Y           Z
 ---------------------------------------------------------------------
      1          6           0        0.003706   -0.000000   -0.036322
      2          6           0       -0.009677   -0.000000    1.509717
      3          1           0        1.029561   -0.000000   -0.392195
      4          1           0       -0.499573   -0.882539   -0.420762
      5          1           0       -0.499573    0.882539   -0.420762
      6          8           0       -1.342850   -0.000000    2.065510
      7          1           0        0.513068   -0.885235    1.889573
      8          1           0        0.513068    0.885235    1.889573
 ---------------------------------------------------------------------
                    Distance matrix (angstroms):
                    1          2          3          4          5
     1  C    0.000000
     2  C    1.546097   0.000000
     3  H    1.085829   2.167322   0.000000
     4  H    1.086259   2.178445   1.765770   0.000000
     5  H    1.086259   2.178445   1.765770   1.765078   0.000000
     6  O    2.496179   1.444387   3.415940   2.769754   2.769754
     7  H    2.179946   1.095991   2.501374   2.522518   3.080279
     8  H    2.179946   1.095991   2.501374   3.080279   2.522518
                    6          7          8
     6  O    0.000000
     7  H    2.063742   0.000000
     8  H    2.063742   1.770470   0.000000
 Stoichiometry    C2H5O(2)
 Framework group  CS[SG(C2HO),X(H4)]
 Deg. of freedom    11
 Full point group                 CS      NOp   2
 Largest Abelian subgroup         CS      NOp   2
 Largest concise Abelian subgroup CS      NOp   2
                         Standard orientation:                         
 ---------------------------------------------------------------------
 Center     Atomic      Atomic             Coordinates (Angstroms)
 Number     Number       Type             X           Y           Z
 ---------------------------------------------------------------------
      1          6           0        1.082694   -0.557366    0.000000
      2          6           0        0.000000    0.546351   -0.000000
      3          1           0        2.068216   -0.101546   -0.000000
      4          1           0        0.987208   -1.183438    0.882539
      5          1           0        0.987208   -1.183438   -0.882539
      6          8           0       -1.345520    0.021155    0.000000
      7          1           0        0.112682    1.182635    0.885235
      8          1           0        0.112682    1.182635   -0.885235
 ---------------------------------------------------------------------
 Rotational constants (GHZ):          37.3464554           9.2451071           8.1647471
 Standard basis: STO-3G (5D, 7F)
 There are    15 symmetry adapted cartesian basis functions of A'  symmetry.
 There are     5 symmetry adapted cartesian basis functions of A"  symmetry.
 There are    15 symmetry adapted basis functions of A'  symmetry.
 There are     5 symmetry adapted basis functions of A"  symmetry.
    20 basis functions,    60 primitive gaussians,    20 cartesian basis functions
    13 alpha electrons       12 beta electrons
       nuclear repulsion energy        72.7230448394 Hartrees.
 NAtoms=    8 NActive=    8 NUniq=    6 SFac= 1.78D+00 NAtFMM=   60 NAOKFM=F Big=F
 Integral buffers will be    131072 words long.
 Raffenetti 2 integral format.
 Two-electron integral symmetry is turned on.
 One-electron integrals computed using PRISM.
 NBasis=    20 RedAO= T EigKep=  2.13D-01  NBF=    15     5
 NBsUse=    20 1.00D-06 EigRej= -1.00D+00 NBFU=    15     5
 Initial guess from the checkpoint file:  "/mnt/lustre/scratch/nvme/SLURM/122918/uscqfafr.bpjI8otnWK/Gau-3812940.chk"
 B after Tr=    -0.000000    0.000000    0.000000
         Rot=    0.999973    0.000000   -0.000000   -0.007316 Ang=  -0.84 deg.
 Initial guess orbital symmetries:
 Alpha Orbitals:
       Occupied  (A') (A') (A') (A') (A') (A') (A") (A') (A") (A')
                 (A') (A") (A')
       Virtual   (A') (A") (A') (A') (A') (A') (A")
 Beta  Orbitals:
       Occupied  (A') (A') (A') (A') (A') (A') (A") (A') (A') (A")
                 (A') (A')
       Virtual   (A") (A') (A') (A") (A') (A') (A') (A")
 Initial guess <Sx>= 0.0000 <Sy>= 0.0000 <Sz>= 0.5000 <S**2>= 0.7560 S= 0.5030
 ExpMin= 1.69D-01 ExpMax= 1.31D+02 ExpMxC= 1.31D+02 IAcc=3 IRadAn=         5 AccDes= 0.00D+00
 Harris functional with IExCor=  205 and IRadAn=       5 diagonalized for initial guess.
 HarFok:  IExCor=  205 AccDes= 0.00D+00 IRadAn=         5 IDoV= 1 UseB2=F ITyADJ=14
 ICtDFT=  3500011 ScaDFX=  1.000000  1.000000  1.000000  1.000000
 FoFCou: FMM=F IPFlag=           0 FMFlag=      100000 FMFlg1=           0
         NFxFlg=           0 DoJE=T BraDBF=F KetDBF=T FulRan=T
         wScrn=  0.000000 ICntrl=       500 IOpCl=  0 I1Cent=   200000004 NGrid=           0
         NMat0=    1 NMatS0=      1 NMatT0=    0 NMatD0=    1 NMtDS0=    0 NMtDT0=    0
 Petite list used in FoFCou.
 Keep R1 and R2 ints in memory in symmetry-blocked form, NReq=835100.
 Requested convergence on RMS density matrix=1.00D-08 within 128 cycles.
 Requested convergence on MAX density matrix=1.00D-06.
 Requested convergence on             energy=1.00D-06.
 No special actions if energy rises.
 SCF Done:  E(UHF) =  -151.544386763     A.U. after   13 cycles
            NFock= 13  Conv=0.17D-08     -V/T= 2.0083
 <Sx>= 0.0000 <Sy>= 0.0000 <Sz>= 0.5000 <S**2>= 0.7557 S= 0.5028
 <L.S>=  0.00000000000    
 Annihilation of the first spin contaminant:
 S**2 before annihilation     0.7557,   after     0.7500
 Calling FoFJK, ICntrl=      2127 FMM=F ISym2X=1 I1Cent= 0 IOpClX= 1 NMat=1 NMatS=1 NMatT=0.
 ***** Axes restored to original set *****
 -------------------------------------------------------------------
 Center     Atomic                   Forces (Hartrees/Bohr)
 Number     Number              X              Y              Z
 -------------------------------------------------------------------
      1        6           0.000418929    0.000000000    0.001033723
      2        6          -0.001640510   -0.000000000   -0.000022740
      3        1          -0.000260152   -0.000000000   -0.001017454
      4        1           0.000276858    0.000602785   -0.000134194
      5        1           0.000276858   -0.000602785   -0.000134194
      6        8           0.001047127   -0.000000000   -0.000044878
      7        1          -0.000059554    0.001008638    0.000159868
      8        1          -0.000059554   -0.001008638    0.000159868
 -------------------------------------------------------------------
 Cartesian Forces:  Max     0.001640510 RMS     0.000617326

 GradGradGradGradGradGradGradGradGradGradGradGradGradGradGradGradGradGrad
 Berny optimization.
 Using GEDIIS/GDIIS optimizer.
 FormGI is forming the generalized inverse of G from B-inverse, IUseBI=4.
 Internal  Forces:  Max     0.001415820 RMS     0.000532790
 Search for a local minimum.
 Step number   3 out of a maximum of   38
 All quantities printed in internal units (Hartrees-Bohrs-Radians)
 Mixed Optimization -- En-DIIS/RFO-DIIS
 Update second derivatives using D2CorX and points    1    2    3
 DE= -1.00D-03 DEPred=-9.05D-04 R= 1.11D+00
 TightC=F SS=  1.41D+00  RLast= 8.83D-02 DXNew= 8.4853D-01 2.6488D-01
 Trust test= 1.11D+00 RLast= 8.83D-02 DXMaxT set to 5.05D-01
 ITU=  1  1  0
 Use linear search instead of GDIIS.
     Eigenvalues ---    0.00766   0.05601   0.05926   0.05979   0.06246
     Eigenvalues ---    0.15995   0.16000   0.16000   0.16004   0.17530
     Eigenvalues ---    0.23286   0.34468   0.34926   0.34928   0.36670
     Eigenvalues ---    0.37230   0.38270   0.49086
 RFO step:  Lambda=-3.00088366D-05 EMin= 7.65947526D-03
 Quartic linear search produced a step of -0.05419.
 Iteration  1 RMS(Cart)=  0.00323377 RMS(Int)=  0.00000951
 Iteration  2 RMS(Cart)=  0.00000876 RMS(Int)=  0.00000239
 Iteration  3 RMS(Cart)=  0.00000000 RMS(Int)=  0.00000239
 ClnCor:  largest displacement from symmetrization is 1.19D-13 for atom     5.
 Variable       Old X    -DE/DX   Delta X   Delta X   Delta X     New X
                                 (Linear)    (Quad)   (Total)
    R1        2.92170   0.00026   0.00248  -0.00307  -0.00059   2.92111
    R2        2.05192   0.00009  -0.00008   0.00036   0.00028   2.05220
    R3        2.05273  -0.00057  -0.00024  -0.00115  -0.00139   2.05134
    R4        2.05273  -0.00057  -0.00024  -0.00115  -0.00139   2.05134
    R5        2.72950  -0.00098   0.00095  -0.00355  -0.00260   2.72690
    R6        2.07112  -0.00079   0.00059  -0.00292  -0.00233   2.06879
    R7        2.07112  -0.00079   0.00059  -0.00292  -0.00233   2.06879
    A1        1.91337   0.00142   0.00196   0.00614   0.00810   1.92147
    A2        1.92825   0.00018   0.00008   0.00051   0.00059   1.92884
    A3        1.92825   0.00018   0.00008   0.00051   0.00059   1.92884
    A4        1.89835  -0.00071  -0.00076  -0.00224  -0.00300   1.89536
    A5        1.89835  -0.00071  -0.00076  -0.00224  -0.00300   1.89536
    A6        1.89671  -0.00039  -0.00069  -0.00285  -0.00354   1.89317
    A7        1.97444   0.00060   0.00174   0.00073   0.00247   1.97691
    A8        1.92031   0.00038   0.00013   0.00173   0.00186   1.92218
    A9        1.92031   0.00038   0.00013   0.00173   0.00186   1.92218
   A10        1.88270  -0.00037  -0.00043   0.00010  -0.00032   1.88238
   A11        1.88270  -0.00037  -0.00043   0.00010  -0.00032   1.88238
   A12        1.88049  -0.00072  -0.00136  -0.00475  -0.00611   1.87439
    D1        3.14159   0.00000   0.00000   0.00000   0.00000   3.14159
    D2       -1.03465   0.00020   0.00075   0.00186   0.00261  -1.03204
    D3        1.03465  -0.00020  -0.00075  -0.00186  -0.00261   1.03204
    D4       -1.04970   0.00013   0.00038   0.00145   0.00183  -1.04787
    D5        1.05724   0.00033   0.00114   0.00330   0.00444   1.06168
    D6        3.12653  -0.00008  -0.00037  -0.00041  -0.00078   3.12576
    D7        1.04970  -0.00013  -0.00038  -0.00145  -0.00183   1.04787
    D8       -3.12653   0.00008   0.00037   0.00041   0.00078  -3.12576
    D9       -1.05724  -0.00033  -0.00114  -0.00330  -0.00444  -1.06168
         Item               Value     Threshold  Converged?
 Maximum Force            0.001416     0.000450     NO 
 RMS     Force            0.000533     0.000300     NO 
 Maximum Displacement     0.011286     0.001800     NO 
 RMS     Displacement     0.003233     0.001200     NO 
 Predicted change in Energy=-1.886324D-05
 GradGradGradGradGradGradGradGradGradGradGradGradGradGradGradGradGradGrad

                          Input orientation:                          
 ---------------------------------------------------------------------
 Center     Atomic      Atomic             Coordinates (Angstroms)
 Number     Number       Type             X           Y           Z
 ---------------------------------------------------------------------
      1          6           0        0.005029    0.000000   -0.035685
      2          6           0       -0.010981   -0.000000    1.510017
      3          1           0        1.028726   -0.000000   -0.398167
      4          1           0       -0.498750   -0.880818   -0.421334
      5          1           0       -0.498750    0.880818   -0.421334
      6          8           0       -1.342456    0.000000    2.066304
      7          1           0        0.512456   -0.882263    1.892266
      8          1           0        0.512456    0.882263    1.892266
 ---------------------------------------------------------------------
                    Distance matrix (angstroms):
                    1          2          3          4          5
     1  C    0.000000
     2  C    1.545785   0.000000
     3  H    1.085978   2.173052   0.000000
     4  H    1.085522   2.178043   1.763395   0.000000
     5  H    1.085522   2.178043   1.763395   1.761636   0.000000
     6  O    2.496813   1.443011   3.419959   2.770563   2.770563
     7  H    2.180107   1.094755   2.508188   2.524933   3.079568
     8  H    2.180107   1.094755   2.508188   3.079568   2.524933
                    6          7          8
     6  O    0.000000
     7  H    2.061401   0.000000
     8  H    2.061401   1.764526   0.000000
 Stoichiometry    C2H5O(2)
 Framework group  CS[SG(C2HO),X(H4)]
 Deg. of freedom    11
 Full point group                 CS      NOp   2
 Largest Abelian subgroup         CS      NOp   2
 Largest concise Abelian subgroup CS      NOp   2
                         Standard orientation:                         
 ---------------------------------------------------------------------
 Center     Atomic      Atomic             Coordinates (Angstroms)
 Number     Number       Type             X           Y           Z
 ---------------------------------------------------------------------
      1          6           0        1.082442   -0.558238    0.000000
      2          6           0        0.000000    0.545288    0.000000
      3          1           0        2.071774   -0.110387    0.000000
      4          1           0        0.986348   -1.185362    0.880818
      5          1           0        0.986348   -1.185362   -0.880818
      6          8           0       -1.345546    0.023956    0.000000
      7          1           0        0.112624    1.183580    0.882263
      8          1           0        0.112624    1.183580   -0.882263
 ---------------------------------------------------------------------
 Rotational constants (GHZ):          37.4726987           9.2395069           8.1619839
 Standard basis: STO-3G (5D, 7F)
 There are    15 symmetry adapted cartesian basis functions of A'  symmetry.
 There are     5 symmetry adapted cartesian basis functions of A"  symmetry.
 There are    15 symmetry adapted basis functions of A'  symmetry.
 There are     5 symmetry adapted basis functions of A"  symmetry.
    20 basis functions,    60 primitive gaussians,    20 cartesian basis functions
    13 alpha electrons       12 beta electrons
       nuclear repulsion energy        72.7495278698 Hartrees.
 NAtoms=    8 NActive=    8 NUniq=    6 SFac= 1.78D+00 NAtFMM=   60 NAOKFM=F Big=F
 Integral buffers will be    131072 words long.
 Raffenetti 2 integral format.
 Two-electron integral symmetry is turned on.
 One-electron integrals computed using PRISM.
 NBasis=    20 RedAO= T EigKep=  2.13D-01  NBF=    15     5
 NBsUse=    20 1.00D-06 EigRej= -1.00D+00 NBFU=    15     5
 Initial guess from the checkpoint file:  "/mnt/lustre/scratch/nvme/SLURM/122918/uscqfafr.bpjI8otnWK/Gau-3812940.chk"
 B after Tr=    -0.000000   -0.000000   -0.000000
         Rot=    1.000000   -0.000000    0.000000    0.000811 Ang=   0.09 deg.
 Initial guess orbital symmetries:
 Alpha Orbitals:
       Occupied  (A') (A') (A') (A') (A') (A') (A") (A') (A') (A")
                 (A') (A") (A')
       Virtual   (A') (A") (A') (A') (A') (A') (A")
 Beta  Orbitals:
       Occupied  (A') (A') (A') (A') (A') (A') (A") (A') (A') (A")
                 (A') (A')
       Virtual   (A") (A') (A") (A') (A') (A') (A') (A")
 Initial guess <Sx>= 0.0000 <Sy>= 0.0000 <Sz>= 0.5000 <S**2>= 0.7557 S= 0.5028
 Keep R1 and R2 ints in memory in symmetry-blocked form, NReq=835100.
 Requested convergence on RMS density matrix=1.00D-08 within 128 cycles.
 Requested convergence on MAX density matrix=1.00D-06.
 Requested convergence on             energy=1.00D-06.
 No special actions if energy rises.
 SCF Done:  E(UHF) =  -151.544403358     A.U. after   11 cycles
            NFock= 11  Conv=0.18D-08     -V/T= 2.0082
 <Sx>= 0.0000 <Sy>= 0.0000 <Sz>= 0.5000 <S**2>= 0.7556 S= 0.5028
 <L.S>=  0.00000000000    
 Annihilation of the first spin contaminant:
 S**2 before annihilation     0.7556,   after     0.7500
 Calling FoFJK, ICntrl=      2127 FMM=F ISym2X=1 I1Cent= 0 IOpClX= 1 NMat=1 NMatS=1 NMatT=0.
 ***** Axes restored to original set *****
 -------------------------------------------------------------------
 Center     Atomic                   Forces (Hartrees/Bohr)
 Number     Number              X              Y              Z
 -------------------------------------------------------------------
      1        6           0.000172711   -0.000000000    0.000033035
      2        6          -0.000310712    0.000000000   -0.000159450
      3        1          -0.000058807   -0.000000000    0.000077470
      4        1          -0.000082479   -0.000154595   -0.000068049
      5        1          -0.000082479    0.000154595   -0.000068049
      6        8          -0.000086850   -0.000000000   -0.000023018
      7        1           0.000224308   -0.000319454    0.000104031
      8        1           0.000224308    0.000319454    0.000104031
 -------------------------------------------------------------------
 Cartesian Forces:  Max     0.000319454 RMS     0.000153767

 GradGradGradGradGradGradGradGradGradGradGradGradGradGradGradGradGradGrad
 Berny optimization.
 Using GEDIIS/GDIIS optimizer.
 FormGI is forming the generalized inverse of G from B-inverse, IUseBI=4.
 Internal  Forces:  Max     0.000401020 RMS     0.000124181
 Search for a local minimum.
 Step number   4 out of a maximum of   38
 All quantities printed in internal units (Hartrees-Bohrs-Radians)
 Mixed Optimization -- En-DIIS/RFO-DIIS
 Swapping is turned off.
 Update second derivatives using D2CorX and points    1    2    3    4
 DE= -1.66D-05 DEPred=-1.89D-05 R= 8.80D-01
 TightC=F SS=  1.41D+00  RLast= 1.52D-02 DXNew= 8.4853D-01 4.5529D-02
 Trust test= 8.80D-01 RLast= 1.52D-02 DXMaxT set to 5.05D-01
 ITU=  1  1  1  0
     Eigenvalues ---    0.00766   0.05569   0.05923   0.05951   0.06153
     Eigenvalues ---    0.15949   0.16000   0.16000   0.16096   0.17353
     Eigenvalues ---    0.23611   0.34544   0.34928   0.34956   0.37230
     Eigenvalues ---    0.38089   0.41820   0.49308
 En-DIIS/RFO-DIIS/Sim-DIIS IScMMF=       -3 using points:     4    3
 RFO step:  Lambda=-1.07446891D-06.
 DidBck=F Rises=F RFO-DIIS coefs:    0.96779    0.03221
 Iteration  1 RMS(Cart)=  0.00035354 RMS(Int)=  0.00000016
 Iteration  2 RMS(Cart)=  0.00000007 RMS(Int)=  0.00000014
 ClnCor:  largest displacement from symmetrization is 9.84D-14 for atom     5.
 Variable       Old X    -DE/DX   Delta X   Delta X   Delta X     New X
                                 (Linear)    (Quad)   (Total)
    R1        2.92111   0.00003   0.00002   0.00010   0.00012   2.92123
    R2        2.05220  -0.00008  -0.00001  -0.00020  -0.00021   2.05199
    R3        2.05134   0.00019   0.00004   0.00041   0.00045   2.05179
    R4        2.05134   0.00019   0.00004   0.00041   0.00045   2.05179
    R5        2.72690   0.00007   0.00008   0.00002   0.00010   2.72700
    R6        2.06879   0.00040   0.00008   0.00086   0.00094   2.06973
    R7        2.06879   0.00040   0.00008   0.00086   0.00094   2.06973
    A1        1.92147  -0.00008  -0.00026  -0.00007  -0.00033   1.92114
    A2        1.92884   0.00002  -0.00002   0.00015   0.00013   1.92897
    A3        1.92884   0.00002  -0.00002   0.00015   0.00013   1.92897
    A4        1.89536   0.00003   0.00010  -0.00008   0.00002   1.89537
    A5        1.89536   0.00003   0.00010  -0.00008   0.00002   1.89537
    A6        1.89317  -0.00000   0.00011  -0.00007   0.00004   1.89321
    A7        1.97691  -0.00008  -0.00008  -0.00011  -0.00019   1.97672
    A8        1.92218  -0.00003  -0.00006  -0.00014  -0.00020   1.92198
    A9        1.92218  -0.00003  -0.00006  -0.00014  -0.00020   1.92198
   A10        1.88238   0.00007   0.00001   0.00037   0.00038   1.88276
   A11        1.88238   0.00007   0.00001   0.00037   0.00038   1.88276
   A12        1.87439   0.00002   0.00020  -0.00033  -0.00014   1.87425
    D1        3.14159   0.00000   0.00000   0.00000   0.00000   3.14159
    D2       -1.03204   0.00001  -0.00008   0.00029   0.00021  -1.03183
    D3        1.03204  -0.00001   0.00008  -0.00029  -0.00021   1.03183
    D4       -1.04787  -0.00001  -0.00006  -0.00005  -0.00011  -1.04799
    D5        1.06168  -0.00000  -0.00014   0.00024   0.00010   1.06178
    D6        3.12576  -0.00002   0.00003  -0.00034  -0.00032   3.12544
    D7        1.04787   0.00001   0.00006   0.00005   0.00011   1.04799
    D8       -3.12576   0.00002  -0.00003   0.00034   0.00032  -3.12544
    D9       -1.06168   0.00000   0.00014  -0.00024  -0.00010  -1.06178
         Item               Value     Threshold  Converged?
 Maximum Force            0.000401     0.000450     YES
 RMS     Force            0.000124     0.000300     YES
 Maximum Displacement     0.000727     0.001800     YES
 RMS     Displacement     0.000354     0.001200     YES
 Predicted change in Energy=-5.372305D-07
 Optimization completed.
    -- Stationary point found.
                           ----------------------------
                           !   Optimized Parameters   !
                           ! (Angstroms and Degrees)  !
 --------------------------                            --------------------------
 ! Name  Definition              Value          Derivative Info.                !
 --------------------------------------------------------------------------------
 ! R1    R(1,2)                  1.5458         -DE/DX =    0.0                 !
 ! R2    R(1,3)                  1.086          -DE/DX =   -0.0001              !
 ! R3    R(1,4)                  1.0855         -DE/DX =    0.0002              !
 ! R4    R(1,5)                  1.0855         -DE/DX =    0.0002              !
 ! R5    R(2,6)                  1.443          -DE/DX =    0.0001              !
 ! R6    R(2,7)                  1.0948         -DE/DX =    0.0004              !
 ! R7    R(2,8)                  1.0948         -DE/DX =    0.0004              !
 ! A1    A(2,1,3)              110.092          -DE/DX =   -0.0001              !
 ! A2    A(2,1,4)              110.5142         -DE/DX =    0.0                 !
 ! A3    A(2,1,5)              110.5142         -DE/DX =    0.0                 !
 ! A4    A(3,1,4)              108.5959         -DE/DX =    0.0                 !
 ! A5    A(3,1,5)              108.5959         -DE/DX =    0.0                 !
 ! A6    A(4,1,5)              108.4704         -DE/DX =    0.0                 !
 ! A7    A(1,2,6)              113.2685         -DE/DX =   -0.0001              !
 ! A8    A(1,2,7)              110.1326         -DE/DX =    0.0                 !
 ! A9    A(1,2,8)              110.1326         -DE/DX =    0.0                 !
 ! A10   A(6,2,7)              107.8527         -DE/DX =    0.0001              !
 ! A11   A(6,2,8)              107.8527         -DE/DX =    0.0001              !
 ! A12   A(7,2,8)              107.3945         -DE/DX =    0.0                 !
 ! D1    D(3,1,2,6)            180.0            -DE/DX =    0.0                 !
 ! D2    D(3,1,2,7)            -59.1314         -DE/DX =    0.0                 !
 ! D3    D(3,1,2,8)             59.1314         -DE/DX =    0.0                 !
 ! D4    D(4,1,2,6)            -60.0387         -DE/DX =    0.0                 !
 ! D5    D(4,1,2,7)             60.8299         -DE/DX =    0.0                 !
 ! D6    D(4,1,2,8)            179.0926         -DE/DX =    0.0                 !
 ! D7    D(5,1,2,6)             60.0387         -DE/DX =    0.0                 !
 ! D8    D(5,1,2,7)           -179.0926         -DE/DX =    0.0                 !
 ! D9    D(5,1,2,8)            -60.8299         -DE/DX =    0.0                 !
 --------------------------------------------------------------------------------
 GradGradGradGradGradGradGradGradGradGradGradGradGradGradGradGradGradGrad

                          Input orientation:                          
 ---------------------------------------------------------------------
 Center     Atomic      Atomic             Coordinates (Angstroms)
 Number     Number       Type             X           Y           Z
 ---------------------------------------------------------------------
      1          6           0        0.005029   -0.000000   -0.035685
      2          6           0       -0.010981   -0.000000    1.510017
      3          1           0        1.028726   -0.000000   -0.398167
      4          1           0       -0.498750   -0.880818   -0.421334
      5          1           0       -0.498750    0.880818   -0.421334
      6          8           0       -1.342456    0.000000    2.066304
      7          1           0        0.512456   -0.882263    1.892266
      8          1           0        0.512456    0.882263    1.892266
 ---------------------------------------------------------------------
                    Distance matrix (angstroms):
                    1          2          3          4          5
     1  C    0.000000
     2  C    1.545785   0.000000
     3  H    1.085978   2.173052   0.000000
     4  H    1.085522   2.178043   1.763395   0.000000
     5  H    1.085522   2.178043   1.763395   1.761636   0.000000
     6  O    2.496813   1.443011   3.419959   2.770563   2.770563
     7  H    2.180107   1.094755   2.508188   2.524933   3.079568
     8  H    2.180107   1.094755   2.508188   3.079568   2.524933
                    6          7          8
     6  O    0.000000
     7  H    2.061401   0.000000
     8  H    2.061401   1.764526   0.000000
 Stoichiometry    C2H5O(2)
 Framework group  CS[SG(C2HO),X(H4)]
 Deg. of freedom    11
 Full point group                 CS      NOp   2
 Largest Abelian subgroup         CS      NOp   2
 Largest concise Abelian subgroup CS      NOp   2
                         Standard orientation:                         
 ---------------------------------------------------------------------
 Center     Atomic      Atomic             Coordinates (Angstroms)
 Number     Number       Type             X           Y           Z
 ---------------------------------------------------------------------
      1          6           0        1.082442   -0.558238    0.000000
      2          6           0        0.000000    0.545288   -0.000000
      3          1           0        2.071774   -0.110387   -0.000000
      4          1           0        0.986348   -1.185362    0.880818
      5          1           0        0.986348   -1.185362   -0.880818
      6          8           0       -1.345546    0.023956    0.000000
      7          1           0        0.112624    1.183580    0.882263
      8          1           0        0.112624    1.183580   -0.882263
 ---------------------------------------------------------------------
 Rotational constants (GHZ):          37.4726987           9.2395069           8.1619839

 **********************************************************************

            Population analysis using the SCF Density.

 **********************************************************************

 Orbital symmetries:
 Alpha Orbitals:
       Occupied  (A') (A') (A') (A') (A') (A') (A") (A') (A') (A")
                 (A') (A") (A')
       Virtual   (A') (A") (A') (A') (A') (A') (A")
 Beta  Orbitals:
       Occupied  (A') (A') (A') (A') (A') (A') (A") (A') (A') (A")
                 (A') (A')
       Virtual   (A") (A') (A") (A') (A') (A') (A') (A")
 The electronic state is 2-A".
 Alpha  occ. eigenvalues --  -20.28418 -11.09198 -11.04443  -1.29721  -0.96621
 Alpha  occ. eigenvalues --   -0.79919  -0.62976  -0.56943  -0.52095  -0.51938
 Alpha  occ. eigenvalues --   -0.46777  -0.43629  -0.37596
 Alpha virt. eigenvalues --    0.56698   0.63430   0.66566   0.70343   0.74757
 Alpha virt. eigenvalues --    0.76158   0.76938
  Beta  occ. eigenvalues --  -20.25570 -11.09562 -11.04427  -1.15994  -0.94963
  Beta  occ. eigenvalues --   -0.78502  -0.59536  -0.55989  -0.51277  -0.48121
  Beta  occ. eigenvalues --   -0.43530  -0.33402
  Beta virt. eigenvalues --    0.35243   0.59171   0.64455   0.66215   0.71491
  Beta virt. eigenvalues --    0.74991   0.76183   0.77719
          Condensed to atoms (all electrons):
               1          2          3          4          5          6
     1  C    4.745154   0.354138   0.383126   0.384362   0.384362  -0.015794
     2  C    0.354138   4.747454  -0.018456  -0.020523  -0.020523   0.234384
     3  H    0.383126  -0.018456   0.616555  -0.021047  -0.021047   0.000481
     4  H    0.384362  -0.020523  -0.021047   0.614616  -0.021642  -0.000436
     5  H    0.384362  -0.020523  -0.021047  -0.021642   0.614616  -0.000436
     6  O   -0.015794   0.234384   0.000481  -0.000436  -0.000436   7.928089
     7  H   -0.023945   0.373941  -0.001619  -0.002107   0.001748  -0.014360
     8  H   -0.023945   0.373941  -0.001619   0.001748  -0.002107  -0.014360
               7          8
     1  C   -0.023945  -0.023945
     2  C    0.373941   0.373941
     3  H   -0.001619  -0.001619
     4  H   -0.002107   0.001748
     5  H    0.001748  -0.002107
     6  O   -0.014360  -0.014360
     7  H    0.619192  -0.020703
     8  H   -0.020703   0.619192
          Atomic-Atomic Spin Densities.
               1          2          3          4          5          6
     1  C    0.005826   0.003635  -0.000052  -0.000329  -0.000329  -0.000079
     2  C    0.003635  -0.134965   0.000448   0.000313   0.000313  -0.012399
     3  H   -0.000052   0.000448  -0.003473   0.000160   0.000160   0.000003
     4  H   -0.000329   0.000313   0.000160  -0.001164   0.000019   0.000047
     5  H   -0.000329   0.000313   0.000160   0.000019  -0.001164   0.000047
     6  O   -0.000079  -0.012399   0.000003   0.000047   0.000047   1.080042
     7  H   -0.000252   0.003568   0.000035  -0.000130   0.000035  -0.004400
     8  H   -0.000252   0.003568   0.000035   0.000035  -0.000130  -0.004400
               7          8
     1  C   -0.000252  -0.000252
     2  C    0.003568   0.003568
     3  H    0.000035   0.000035
     4  H   -0.000130   0.000035
     5  H    0.000035  -0.000130
     6  O   -0.004400  -0.004400
     7  H    0.042558  -0.004780
     8  H   -0.004780   0.042558
 Mulliken charges and spin densities:
               1          2
     1  C   -0.187459   0.008171
     2  C   -0.024356  -0.135519
     3  H    0.063625  -0.002683
     4  H    0.065028  -0.001049
     5  H    0.065028  -0.001049
     6  O   -0.117568   1.058861
     7  H    0.067852   0.036634
     8  H    0.067852   0.036634
 Sum of Mulliken charges =  -0.00000   1.00000
 Mulliken charges and spin densities with hydrogens summed into heavy atoms:
               1          2
     1  C    0.006220   0.003390
     2  C    0.111347  -0.062252
     6  O   -0.117568   1.058861
 Electronic spatial extent (au):  <R**2>=            183.7927
 Charge=             -0.0000 electrons
 Dipole moment (field-independent basis, Debye):
    X=              1.2225    Y=              0.4634    Z=             -0.0000  Tot=              1.3074
 Quadrupole moment (field-independent basis, Debye-Ang):
   XX=            -19.8430   YY=            -17.5712   ZZ=            -16.8565
   XY=              0.0099   XZ=             -0.0000   YZ=              0.0000
 Traceless Quadrupole moment (field-independent basis, Debye-Ang):
   XX=             -1.7528   YY=              0.5191   ZZ=              1.2338
   XY=              0.0099   XZ=             -0.0000   YZ=              0.0000
 Octapole moment (field-independent basis, Debye-Ang**2):
  XXX=             -3.8323  YYY=              0.4304  ZZZ=             -0.0000  XYY=             -2.2623
  XXY=              0.3102  XXZ=             -0.0000  XZZ=             -3.1690  YZZ=              0.1317
  YYZ=             -0.0000  XYZ=              0.0000
 Hexadecapole moment (field-independent basis, Debye-Ang**3):
 XXXX=           -126.3605 YYYY=            -56.4585 ZZZZ=            -25.8657 XXXY=             16.3776
 XXXZ=             -0.0000 YYYX=             14.6940 YYYZ=              0.0000 ZZZX=             -0.0000
 ZZZY=              0.0000 XXYY=            -31.0194 XXZZ=            -24.5944 YYZZ=            -12.0039
 XXYZ=              0.0000 YYXZ=             -0.0000 ZZXY=              4.5134
 N-N= 7.274952786983D+01 E-N=-5.016823377908D+02  KE= 1.503059701566D+02
 Symmetry A'   KE= 1.438458503234D+02
 Symmetry A"   KE= 6.460119833226D+00
 Symmetry A'   SP= 2.628753119707D-14
 Symmetry A"   SP= 1.000000000000D+00
                          Isotropic Fermi Contact Couplings
        Atom                 a.u.       MegaHertz       Gauss      10(-4) cm-1
     1  C(13)              0.00183       2.06192       0.73574       0.68778
     2  C(13)             -0.05055     -56.82677     -20.27720     -18.95537
     3  H(1)              -0.00132      -5.88240      -2.09899      -1.96216
     4  H(1)              -0.00047      -2.10367      -0.75064      -0.70171
     5  H(1)              -0.00047      -2.10367      -0.75064      -0.70171
     6  O(17)              0.07621     -46.19640     -16.48402     -15.40946
     7  H(1)               0.01652      73.83326      26.34554      24.62813
     8  H(1)               0.01652      73.83326      26.34554      24.62813
 --------------------------------------------------------
       Center         ----  Spin Dipole Couplings  ----
                      3XX-RR        3YY-RR        3ZZ-RR
 --------------------------------------------------------
     1   Atom        0.015641     -0.007792     -0.007849
     2   Atom        0.028756     -0.005559     -0.023197
     3   Atom        0.006497     -0.003315     -0.003183
     4   Atom        0.007686     -0.003485     -0.004201
     5   Atom        0.007686     -0.003485     -0.004201
     6   Atom       -1.263567     -1.445825      2.709391
     7   Atom        0.015241     -0.001031     -0.014209
     8   Atom        0.015241     -0.001031     -0.014209
 --------------------------------------------------------
                        XY            XZ            YZ
 --------------------------------------------------------
     1   Atom       -0.004414      0.000000     -0.000000
     2   Atom        0.003900     -0.000000     -0.000000
     3   Atom        0.000298      0.000000     -0.000000
     4   Atom       -0.006773      0.004391     -0.002151
     5   Atom       -0.006773     -0.004391      0.002151
     6   Atom        0.074889     -0.000000     -0.000000
     7   Atom        0.018056      0.011606     -0.000706
     8   Atom        0.018056     -0.011606      0.000706
 --------------------------------------------------------


 ---------------------------------------------------------------------------------
              Anisotropic Spin Dipole Couplings in Principal Axis System
 ---------------------------------------------------------------------------------

       Atom             a.u.   MegaHertz   Gauss  10(-4) cm-1        Axes

              Baa    -0.0086    -1.154    -0.412    -0.385  0.1792  0.9838  0.0000
     1 C(13)  Bbb    -0.0078    -1.053    -0.376    -0.351 -0.0000 -0.0000  1.0000
              Bcc     0.0164     2.207     0.787     0.736  0.9838 -0.1792  0.0000
 
              Baa    -0.0232    -3.113    -1.111    -1.038  0.0000  0.0000  1.0000
     2 C(13)  Bbb    -0.0060    -0.805    -0.287    -0.268 -0.1115  0.9938 -0.0000
              Bcc     0.0292     3.917     1.398     1.307  0.9938  0.1115 -0.0000
 
              Baa    -0.0033    -1.773    -0.633    -0.592 -0.0303  0.9995 -0.0000
     3 H(1)   Bbb    -0.0032    -1.698    -0.606    -0.566  0.0000  0.0000  1.0000
              Bcc     0.0065     3.472     1.239     1.158  0.9995  0.0303  0.0000
 
              Baa    -0.0067    -3.566    -1.272    -1.189  0.4090  0.9102  0.0653
     4 H(1)   Bbb    -0.0056    -3.011    -1.074    -1.004 -0.2850  0.0594  0.9567
              Bcc     0.0123     6.576     2.347     2.194  0.8669 -0.4099  0.2837
 
              Baa    -0.0067    -3.566    -1.272    -1.189  0.4090  0.9102 -0.0653
     5 H(1)   Bbb    -0.0056    -3.011    -1.074    -1.004  0.2850 -0.0594  0.9567
              Bcc     0.0123     6.576     2.347     2.194  0.8669 -0.4099 -0.2837
 
              Baa    -1.4726   106.560    38.023    35.545 -0.3372  0.9414 -0.0000
     6 O(17)  Bbb    -1.2367    89.490    31.932    29.851  0.9414  0.3372  0.0000
              Bcc     2.7094  -196.050   -69.955   -65.395  0.0000  0.0000  1.0000
 
              Baa    -0.0215   -11.445    -4.084    -3.818 -0.4583  0.4321  0.7767
     7 H(1)   Bbb    -0.0075    -4.024    -1.436    -1.342 -0.2939  0.7510 -0.5913
              Bcc     0.0290    15.469     5.520     5.160  0.8388  0.4993  0.2172
 
              Baa    -0.0215   -11.445    -4.084    -3.818  0.4583 -0.4321  0.7767
     8 H(1)   Bbb    -0.0075    -4.024    -1.436    -1.342 -0.2939  0.7510  0.5913
              Bcc     0.0290    15.469     5.520     5.160  0.8388  0.4993 -0.2172
 

 ---------------------------------------------------------------------------------

 B after Tr=     0.050040    0.000000   -0.037356
         Rot=    0.999981   -0.000000    0.006149    0.000000 Ang=   0.70 deg.
 Final structure in terms of initial Z-matrix:
 C
 C,1,cc2
 H,1,hc3,2,hcc3
 H,1,hc4,2,hcc4,3,dih4,0
 H,1,hc5,2,hcc5,3,dih5,0
 O,2,oc6,1,occ6,3,dih6,0
 H,2,hc7,1,hcc7,6,dih7,0
 H,2,hc8,1,hcc8,6,dih8,0
      Variables:
 cc2=1.54578496
 hc3=1.0859778
 hcc3=110.09203639
 hc4=1.08552241
 hcc4=110.5141885
 dih4=119.96125612
 hc5=1.08552241
 hcc5=110.5141885
 dih5=-119.96125612
 oc6=1.44301104
 occ6=113.26852013
 dih6=180.
 hc7=1.0947552
 hcc7=110.1325866
 dih7=120.86864787
 hc8=1.0947552
 hcc8=110.1325866
 dih8=-120.86864787
 Unable to Open any file for archive entry.
 1\1\GINC-C206-1\FOpt\UHF\STO-3G\C2H5O1(2)\USCQFAFR\03-May-2022\0\\# hf
 /sto-3g opt freq\\--\\0,2\C,0.0050291199,0.,-0.0356854837\C,-0.0109810
 297,0.,1.510016568\H,1.0287257334,0.,-0.3981672474\H,-0.4987503719,-0.
 8808181354,-0.4213337032\H,-0.4987503719,0.8808181354,-0.4213337032\O,
 -1.3424557518,0.,2.0663042007\H,0.5124559346,-0.8822628826,1.892266351
 1\H,0.5124559346,0.8822628826,1.8922663511\\Version=ES64L-G16RevC.01\S
 tate=2-A"\HF=-151.5444034\S2=0.755645\S2-1=0.\S2A=0.750011\RMSD=1.808e
 -09\RMSF=1.538e-04\Dipole=0.4731367,0.,-0.2017394\Quadrupole=-0.485087
 ,0.9172659,-0.4321789,0.,0.8441557,0.\PG=CS [SG(C2H1O1),X(H4)]\\@
 The archive entry for this job was punched.


 WHEN ALL ELSE FAILS, TRY THE BOSS'S SUGGESTION.
 Job cpu time:       0 days  0 hours  0 minutes  1.5 seconds.
 Elapsed time:       0 days  0 hours  0 minutes  1.3 seconds.
 File lengths (MBytes):  RWF=      6 Int=      0 D2E=      0 Chk=      1 Scr=      1
 Normal termination of Gaussian 16 at Tue May  3 16:48:03 2022.
 Link1:  Proceeding to internal job step number  2.
 ---------------------------------------------------------------
 #N Geom=AllCheck Guess=TCheck SCRF=Check GenChk UHF/STO-3G Freq
 ---------------------------------------------------------------
 1/10=4,29=7,30=1,38=1,40=1/1,3;
 2/12=2,40=1/2;
 3/6=3,11=2,14=-4,25=1,30=1,70=2,71=2,116=2,140=1/1,2,3;
 4/5=101/1;
 5/5=2,38=6,98=1/2;
 8/6=4,10=90,11=11/1;
 10/13=10,15=4/2;
 11/6=3,8=1,9=11,15=111,16=1/1,2,10;
 10/6=1/2;
 6/7=2,8=2,9=2,10=2,28=1/1;
 7/8=1,10=1,25=1/1,2,3,16;
 1/10=4,30=1/3;
 99//99;
 Structure from the checkpoint file:  "/mnt/lustre/scratch/nvme/SLURM/122918/uscqfafr.bpjI8otnWK/Gau-3812940.chk"
 --
 --
 --
 Charge =  0 Multiplicity = 2
 Redundant internal coordinates found in file.  (old form).
 C,0,0.0050291199,0.,-0.0356854837
 C,0,-0.0109810297,0.,1.510016568
 H,0,1.0287257334,0.,-0.3981672474
 H,0,-0.4987503719,-0.8808181354,-0.4213337032
[...]
      1        6           0.000172711   -0.000000000    0.000033035
      2        6          -0.000310712   -0.000000000   -0.000159450
      3        1          -0.000058807   -0.000000000    0.000077469
      4        1          -0.000082479   -0.000154595   -0.000068049
      5        1          -0.000082479    0.000154595   -0.000068049
      6        8          -0.000086850   -0.000000000   -0.000023018
      7        1           0.000224308   -0.000319454    0.000104031
      8        1           0.000224308    0.000319454    0.000104031
 -------------------------------------------------------------------
 Cartesian Forces:  Max     0.000319454 RMS     0.000153767
 FormGI is forming the generalized inverse of G from B-inverse, IUseBI=4.

 GradGradGradGradGradGradGradGradGradGradGradGradGradGradGradGradGradGrad
 Berny optimization.
 Internal  Forces:  Max     0.000401020 RMS     0.000124181
 Search for a local minimum.
 Step number   1 out of a maximum of    2
 All quantities printed in internal units (Hartrees-Bohrs-Radians)
 Second derivative matrix not updated -- analytic derivatives used.
 ITU=  0
     Eigenvalues ---    0.00194   0.01244   0.06500   0.06695   0.07110
     Eigenvalues ---    0.15946   0.16671   0.18395   0.20769   0.23695
     Eigenvalues ---    0.26884   0.40491   0.45391   0.46543   0.47262
     Eigenvalues ---    0.48642   0.48765   0.49074
 Angle between quadratic step and forces=  22.49 degrees.
 Linear search not attempted -- first point.
 Iteration  1 RMS(Cart)=  0.00033508 RMS(Int)=  0.00000007
 Iteration  2 RMS(Cart)=  0.00000007 RMS(Int)=  0.00000002
 ClnCor:  largest displacement from symmetrization is 1.26D-09 for atom     5.
 Variable       Old X    -DE/DX   Delta X   Delta X   Delta X     New X
                                 (Linear)    (Quad)   (Total)
    R1        2.92111   0.00003   0.00000   0.00013   0.00013   2.92124
    R2        2.05220  -0.00008   0.00000  -0.00016  -0.00016   2.05204
    R3        2.05134   0.00019   0.00000   0.00039   0.00039   2.05173
    R4        2.05134   0.00019   0.00000   0.00039   0.00039   2.05173
    R5        2.72690   0.00007   0.00000   0.00008   0.00008   2.72697
    R6        2.06879   0.00040   0.00000   0.00087   0.00087   2.06965
    R7        2.06879   0.00040   0.00000   0.00087   0.00087   2.06965
    A1        1.92147  -0.00008   0.00000  -0.00044  -0.00044   1.92103
    A2        1.92884   0.00002   0.00000   0.00010   0.00010   1.92894
    A3        1.92884   0.00002   0.00000   0.00010   0.00010   1.92894
    A4        1.89536   0.00003   0.00000   0.00008   0.00008   1.89544
    A5        1.89536   0.00003   0.00000   0.00008   0.00008   1.89544
    A6        1.89317  -0.00000   0.00000   0.00008   0.00008   1.89325
    A7        1.97691  -0.00008   0.00000  -0.00015  -0.00015   1.97676
    A8        1.92218  -0.00003   0.00000  -0.00020  -0.00020   1.92197
    A9        1.92218  -0.00003   0.00000  -0.00020  -0.00020   1.92197
   A10        1.88238   0.00007   0.00000   0.00032   0.00032   1.88270
   A11        1.88238   0.00007   0.00000   0.00032   0.00032   1.88270
   A12        1.87439   0.00002   0.00000  -0.00007  -0.00007   1.87432
    D1        3.14159  -0.00000   0.00000   0.00000   0.00000   3.14159
    D2       -1.03204   0.00001   0.00000   0.00016   0.00016  -1.03187
    D3        1.03204  -0.00001   0.00000  -0.00016  -0.00016   1.03187
    D4       -1.04787  -0.00001   0.00000  -0.00012  -0.00012  -1.04799
    D5        1.06168  -0.00000   0.00000   0.00005   0.00005   1.06173
    D6        3.12576  -0.00002   0.00000  -0.00028  -0.00028   3.12548
    D7        1.04787   0.00001   0.00000   0.00012   0.00012   1.04799
    D8       -3.12576   0.00002   0.00000   0.00028   0.00028  -3.12548
    D9       -1.06168   0.00000   0.00000  -0.00005  -0.00005  -1.06173
         Item               Value     Threshold  Converged?
 Maximum Force            0.000401     0.000450     YES
 RMS     Force            0.000124     0.000300     YES
 Maximum Displacement     0.000840     0.001800     YES
 RMS     Displacement     0.000335     0.001200     YES
 Predicted change in Energy=-4.922673D-07
 Optimization completed.
    -- Stationary point found.
                           ----------------------------
                           !   Optimized Parameters   !
                           ! (Angstroms and Degrees)  !
 --------------------------                            --------------------------
 ! Name  Definition              Value          Derivative Info.                !
 --------------------------------------------------------------------------------
 ! R1    R(1,2)                  1.5458         -DE/DX =    0.0                 !
 ! R2    R(1,3)                  1.086          -DE/DX =   -0.0001              !
 ! R3    R(1,4)                  1.0855         -DE/DX =    0.0002              !
 ! R4    R(1,5)                  1.0855         -DE/DX =    0.0002              !
 ! R5    R(2,6)                  1.443          -DE/DX =    0.0001              !
 ! R6    R(2,7)                  1.0948         -DE/DX =    0.0004              !
 ! R7    R(2,8)                  1.0948         -DE/DX =    0.0004              !
 ! A1    A(2,1,3)              110.092          -DE/DX =   -0.0001              !
 ! A2    A(2,1,4)              110.5142         -DE/DX =    0.0                 !
 ! A3    A(2,1,5)              110.5142         -DE/DX =    0.0                 !
 ! A4    A(3,1,4)              108.5959         -DE/DX =    0.0                 !
 ! A5    A(3,1,5)              108.5959         -DE/DX =    0.0                 !
 ! A6    A(4,1,5)              108.4704         -DE/DX =    0.0                 !
 ! A7    A(1,2,6)              113.2685         -DE/DX =   -0.0001              !
 ! A8    A(1,2,7)              110.1326         -DE/DX =    0.0                 !
 ! A9    A(1,2,8)              110.1326         -DE/DX =    0.0                 !
 ! A10   A(6,2,7)              107.8527         -DE/DX =    0.0001              !
 ! A11   A(6,2,8)              107.8527         -DE/DX =    0.0001              !
 ! A12   A(7,2,8)              107.3945         -DE/DX =    0.0                 !
 ! D1    D(3,1,2,6)            180.0            -DE/DX =    0.0                 !
 ! D2    D(3,1,2,7)            -59.1314         -DE/DX =    0.0                 !
 ! D3    D(3,1,2,8)             59.1314         -DE/DX =    0.0                 !
 ! D4    D(4,1,2,6)            -60.0387         -DE/DX =    0.0                 !
 ! D5    D(4,1,2,7)             60.8299         -DE/DX =    0.0                 !
 ! D6    D(4,1,2,8)            179.0926         -DE/DX =    0.0                 !
 ! D7    D(5,1,2,6)             60.0387         -DE/DX =    0.0                 !
 ! D8    D(5,1,2,7)           -179.0926         -DE/DX =    0.0                 !
 ! D9    D(5,1,2,8)            -60.8299         -DE/DX =    0.0                 !
 --------------------------------------------------------------------------------
 GradGradGradGradGradGradGradGradGradGradGradGradGradGradGradGradGradGrad


 ----------------------------------------------------------------------

 Electric dipole moment (input orientation):
 (Debye = 10**-18 statcoulomb cm , SI units = C m)
                  (au)            (Debye)         (10**-30 SI)
   Tot        0.514351D+00      0.130735D+01      0.436085D+01
   x          0.473137D+00      0.120259D+01      0.401142D+01
   y          0.000000D+00      0.000000D+00      0.000000D+00
   z         -0.201739D+00     -0.512770D+00     -0.171042D+01

 Dipole polarizability, Alpha (input orientation).
 (esu units = cm**3 , SI units = C**2 m**2 J**-1)
 Alpha(0;0):
               (au)            (10**-24 esu)      (10**-40 SI)
   iso        0.125762D+02      0.186361D+01      0.207354D+01
   aniso      0.215974D+01      0.320040D+00      0.356093D+00
   xx         0.129158D+02      0.191392D+01      0.212953D+01
   yx         0.000000D+00      0.000000D+00      0.000000D+00
   yy         0.129202D+02      0.191458D+01      0.213026D+01
   zx        -0.109746D+01     -0.162627D+00     -0.180947D+00
   zy         0.000000D+00      0.000000D+00      0.000000D+00
   zz         0.118927D+02      0.176232D+01      0.196085D+01

 First dipole hyperpolarizability, Beta (input orientation).
 ||, _|_  parallel and perpendicular components, (z) with respect to z axis,
 vector components x,y,z.  Values do not include the 1/n! factor of 1/2.
 (esu units = statvolt**-1 cm**4 , SI units = C**3 m**3 J**-2)
 Beta(0;0,0):
               (au)            (10**-30 esu)      (10**-50 SI)
   || (z)     0.115181D+02      0.995075D-01      0.369312D-01
   _|_(z)     0.383937D+01      0.331692D-01      0.123104D-01
   x          0.222108D+02      0.191884D+00      0.712158D-01
   y          0.000000D+00      0.000000D+00      0.000000D+00
   z          0.575905D+02      0.497537D+00      0.184656D+00
   ||         0.123450D+02      0.106651D+00      0.395826D-01
   xxx        0.928988D+01      0.802574D-01      0.297867D-01
   xxy        0.000000D+00      0.000000D+00      0.000000D+00
   yxy       -0.511535D+01     -0.441926D-01     -0.164016D-01
   yyy        0.000000D+00      0.000000D+00      0.000000D+00
   xxz       -0.430819D+01     -0.372194D-01     -0.138136D-01
   yxz        0.000000D+00      0.000000D+00      0.000000D+00
   yyz        0.247733D+02      0.214022D+00      0.794321D-01
   zxz        0.322906D+01      0.278966D-01      0.103535D-01
   zyz        0.000000D+00      0.000000D+00      0.000000D+00
   zzz       -0.126826D+01     -0.109568D-01     -0.406649D-02

 ----------------------------------------------------------------------

 Dipole orientation:
     6         -0.05830469          0.00000000          0.03519189
     6          2.61672902          0.00000000         -1.13829847
     1          0.07034608         -0.00000000          2.08335603
     1         -1.10207522          1.66450504         -0.55469125
     1         -1.10207522         -1.66450504         -0.55469125
     8          2.59684956          0.00000000         -3.86512167
     1          3.66916197          1.66723522         -0.51172578
     1          3.66916197         -1.66723522         -0.51172578

 Electric dipole moment (dipole orientation):
 (Debye = 10**-18 statcoulomb cm , SI units = C m)
                  (au)            (Debye)         (10**-30 SI)
   Tot        0.514351D+00      0.130735D+01      0.436085D+01
   x          0.000000D+00      0.000000D+00      0.000000D+00
   y          0.000000D+00      0.000000D+00      0.000000D+00
   z          0.514351D+00      0.130735D+01      0.436085D+01

 Dipole polarizability, Alpha (dipole orientation).
 (esu units = cm**3 , SI units = C**2 m**2 J**-1)
 Alpha(0;0):
               (au)            (10**-24 esu)      (10**-40 SI)
   iso        0.125762D+02      0.186361D+01      0.207354D+01
   aniso      0.215974D+01      0.320040D+00      0.356093D+00
   xx         0.112582D+02      0.166829D+01      0.185623D+01
   yx         0.000000D+00      0.000000D+00      0.000000D+00
   yy         0.129202D+02      0.191458D+01      0.213026D+01
   zx        -0.390694D+00     -0.578949D-01     -0.644168D-01
   zy         0.000000D+00      0.000000D+00      0.000000D+00
   zz         0.135503D+02      0.200795D+01      0.223415D+01

 First dipole hyperpolarizability, Beta (dipole orientation).
 ||, _|_  parallel and perpendicular components, (z) with respect to z axis,
 vector components x,y,z.  Values do not include the 1/n! factor of 1/2.
 (esu units = statvolt**-1 cm**4 , SI units = C**3 m**3 J**-2)
 Beta(0;0,0):
               (au)            (10**-30 esu)      (10**-50 SI)
   || (z)    -0.431433D+00     -0.372724D-02     -0.138333D-02
   _|_(z)    -0.143811D+00     -0.124241D-02     -0.461110D-03
   x          0.616874D+02      0.532931D+00      0.197792D+00
   y          0.000000D+00      0.000000D+00      0.000000D+00
   z         -0.215716D+01     -0.186362D-01     -0.691665D-02
   ||         0.123450D+02      0.106651D+00      0.395826D-01
   xxx        0.959422D+00      0.828865D-02      0.307625D-02
   xxy        0.000000D+00      0.000000D+00      0.000000D+00
   yxy        0.207819D+02      0.179539D+00      0.666342D-01
   yyy        0.000000D+00      0.000000D+00      0.000000D+00
   xxz        0.735332D+00      0.635270D-02      0.235774D-02
   yxz        0.000000D+00      0.000000D+00      0.000000D+00
   yyz       -0.144221D+02     -0.124595D+00     -0.462424D-01
   zxz       -0.117883D+01     -0.101842D-01     -0.377977D-02
   zyz        0.000000D+00      0.000000D+00      0.000000D+00
   zzz        0.129677D+02      0.112031D+00      0.415791D-01

 ----------------------------------------------------------------------
 Unable to Open any file for archive entry.
 1\1\GINC-C206-1\Freq\UHF\STO-3G\C2H5O1(2)\USCQFAFR\03-May-2022\0\\#N G
 eom=AllCheck Guess=TCheck SCRF=Check GenChk UHF/STO-3G Freq\\--\\0,2\C
 ,0.0050291199,0.,-0.0356854837\C,-0.0109810297,0.,1.510016568\H,1.0287
 257334,0.,-0.3981672474\H,-0.4987503719,-0.8808181354,-0.4213337032\H,
 -0.4987503719,0.8808181354,-0.4213337032\O,-1.3424557518,0.,2.06630420
 07\H,0.5124559346,-0.8822628826,1.8922663511\H,0.5124559346,0.88226288
 26,1.8922663511\\Version=ES64L-G16RevC.01\State=2-A"\HF=-151.5444034\S
 2=0.755645\S2-1=0.\S2A=0.750011\RMSD=5.475e-10\RMSF=1.538e-04\ZeroPoin
 t=0.0783446\Thermal=0.0823392\ETot=-151.4620641\HTot=-151.4611199\GTot
 =-151.491921\Dipole=0.4731367,0.,-0.2017394\DipoleDeriv=-0.0867037,0.,
 -0.0099979,0.0000008,0.0099676,-0.0000005,0.0246272,0.,-0.0282439,0.04
 68832,0.,-0.0523007,-0.0000036,-0.0440329,0.0000021,0.0148241,0.,0.404
 5592,-0.0178143,0.,0.0110981,-0.0000001,0.034228,0.,0.0369122,0.,-0.00
 67698,0.0325796,-0.0205801,-0.0065817,-0.0280823,-0.0052166,-0.0114945
 ,-0.0142989,-0.0210654,-0.0123184,0.0325796,0.0205801,-0.0065817,0.028
 0823,-0.0052166,0.0114945,-0.0142989,0.0210654,-0.0123184,-0.0305751,0
 .,0.0205861,0.0000028,-0.0063828,-0.0000016,-0.0609223,0.,-0.2556836,0
 .0115273,0.1294339,0.0218878,0.0251113,0.0083267,0.0241797,0.0065776,-
 0.0066881,-0.0446122,0.0115273,-0.1294339,0.0218878,-0.0251113,0.00832
 67,-0.0241797,0.0065776,0.0066881,-0.0446122\Polar=12.915784,0.,12.920
 2191,-1.0974643,0.,11.8927374\PolarDeriv=-1.8045417,0.,-2.1460892,1.53
 01555,0.,0.1234239,-0.0000039,2.0152362,-0.0000152,-0.0000036,0.297506
 7,0.0000069,1.4032867,0.,3.0517146,0.2313377,0.0000002,-3.200699,1.891
 2035,0.,-4.2901096,-2.2117445,-0.0000006,0.5192655,0.0000179,-3.635358
 7,0.0000698,0.0000165,7.1976589,-0.0000319,-1.7859935,0.,6.0656078,-0.
 1095153,-0.0000013,2.5900365,4.9895983,0.,-0.0674498,-1.693128,0.,0.54
 89569,0.0000007,1.7601779,0.000003,0.0000007,-0.8828279,-0.0000013,-0.
 6598323,0.,0.7244831,2.5070522,0.,-1.7672089,-1.6161478,-1.7723663,-0.
 5784308,-1.3879251,-0.3663798,-0.3069992,-0.1711923,-1.3817365,-4.0678
 331,-0.1543864,-1.5282021,-0.5210423,-0.3261226,0.0416725,-0.3857614,-
 1.1478339,-2.0306505,-1.8512795,-1.6161478,1.7723663,-0.5784308,-1.387
 9251,0.3663798,-0.3069992,0.1711923,-1.3817365,4.0678331,0.1543864,-1.
 5282021,0.5210423,-0.3261226,-0.0416725,-0.3857614,-1.1478339,2.030650
 5,-1.8512795,-6.223153,0.0000001,0.5658474,2.4813139,0.,-0.6861578,-0.
 0000137,-1.7436166,-0.0000536,-0.0000127,-5.6631366,0.0000246,0.893411
 6,0.0000003,-6.6173553,-3.0260981,0.0000006,2.509156,2.1895844,-2.6626
 4,3.5472928,1.3346175,-5.1892354,0.0542725,-0.3713196,2.1835172,-5.522
 0166,-0.2025628,1.0536011,-0.411162,0.4006901,-0.1229128,-1.2264491,1.
 3464491,-0.9912352,1.7856306,2.1895844,2.66264,3.5472928,1.3346175,5.1
 892354,0.0542725,0.3713196,2.1835172,5.5220166,0.2025628,1.0536011,0.4
 11162,0.4006901,0.1229128,-1.2264491,1.3464491,0.9912352,1.7856306\Hyp
 erPolar=9.2898843,0.,-5.1153453,0.,-4.3081857,0.,24.7732894,3.2290594,
 0.,-1.2682571\Quadrupole=-0.485087,0.9172659,-0.4321789,0.,0.8441557,0
 .\PG=CS [SG(C2H1O1),X(H4)]\NImag=0\\0.86507311,0.,0.85974942,0.0051635
 5,-0.00000003,0.70963238,-0.11126885,0.00000004,-0.01722192,0.74383810
 ,-0.00000004,-0.11442288,0.00000016,-0.00000020,0.74869326,-0.00805178
 ,0.00000005,-0.30642695,0.01774255,-0.00000023,0.69994464,-0.42225852,
 0.,0.11815293,0.00531807,0.,-0.00425158,0.43638572,0.,-0.07937526,0.,0
 .,-0.00283764,0.,0.,0.06869699,0.12112768,0.,-0.11523251,0.04326711,0.
 00000004,-0.01017501,-0.12743882,0.,0.11557898,-0.16391547,-0.14538521
 ,-0.06256303,0.00228326,0.00498288,0.00239853,-0.01107589,-0.03606275,
 -0.01817381,0.15809808,-0.14569545,-0.33619759,-0.10809470,0.00425816,
 0.00553921,0.00324353,0.00720914,0.00511279,0.00144181,0.15618120,0.34
 293662,-0.06333466,-0.11078829,-0.12173673,-0.02280960,-0.03918627,-0.
 01348889,0.00766639,0.01588503,0.00668420,0.06740801,0.11647443,0.1229
 9041,-0.16391547,0.14538518,-0.06256303,0.00228326,-0.00498271,0.00239
 853,-0.01107589,0.03606276,-0.01817381,0.01342745,-0.02142750,0.010131
 52,0.15809808,0.14569545,-0.33619758,0.10809470,-0.00425816,0.00553915
 ,-0.00324353,-0.00720914,0.00511279,-0.00144181,0.02142750,-0.01957475
 ,0.01505042,-0.15618120,0.34293662,-0.06333466,0.11078827,-0.12173673,
 -0.02280960,0.03918634,-0.01348889,0.00766639,-0.01588503,0.00668420,0
 .01013152,-0.01505042,0.00698700,0.06740801,-0.11647443,0.12299041,-0.
 01070365,-0.00000003,0.01715610,-0.33841236,0.00000014,0.11835147,0.00
 173957,0.,0.00045040,0.00034103,-0.00037020,-0.00087618,0.00034103,0.0
 0037020,-0.00087618,0.40455025,0.00000003,-0.00419421,-0.00000012,0.00
 000015,-0.01112763,0.00000017,0.,0.00276547,-0.00000003,-0.00072218,0.
 00045201,0.00085374,0.00072205,0.00045205,-0.00085379,-0.00000011,0.00
 690201,0.05052813,0.00000001,-0.01691352,0.11831148,-0.00000006,-0.116
 98860,-0.00170833,0.,-0.00866703,-0.00053867,0.00022247,0.00382145,-0.
 00053867,-0.00022247,0.00382145,-0.15282513,0.00000005,0.11882065,0.00
 349445,-0.00812672,0.00093761,-0.15202063,0.17979072,-0.06429374,0.000
 48347,0.00102112,-0.00052939,-0.00059756,0.00054054,0.00045544,0.00143
 901,0.00069592,0.00135904,-0.02892801,0.00320459,-0.00661437,0.1437610
 4,-0.00297424,0.00531906,-0.00479376,0.13531588,-0.31569181,0.10258492
 ,-0.00022151,0.00026242,0.00003619,-0.00017384,0.00089200,0.00008314,0
 .00024760,0.00083971,-0.00162779,0.00143602,0.00237520,-0.00230736,-0.
 15537801,0.32579360,-0.02104914,0.04094085,-0.01379294,-0.05824005,0.0
 8827906,-0.11968820,-0.00004349,-0.00091725,0.00256359,0.00044243,-0.0
 0031263,0.00286725,0.00089506,-0.00207553,-0.00812469,0.00930979,-0.00
 374442,0.00805278,0.06749307,-0.10807273,0.11838236,0.00349445,0.00812
 673,0.00093761,-0.15202062,-0.17979079,-0.06429373,0.00048347,-0.00102
 112,-0.00052939,0.00143901,-0.00069592,0.00135904,-0.00059756,-0.00054
 054,0.00045544,-0.02892801,-0.00320454,-0.00661437,0.03236825,0.021748
 17,0.00119233,0.14376104,0.00297424,0.00531903,0.00479376,-0.13531588,
 -0.31569166,-0.10258492,0.00022151,0.00026243,-0.00003619,-0.00024760,
 0.00083971,0.00162779,0.00017384,0.00089200,-0.00008314,-0.00143602,0.
 00237509,0.00230736,-0.02174817,-0.01979019,-0.01409735,0.15537801,0.3
 2579360,-0.02104914,-0.04094085,-0.01379294,-0.05824005,-0.08827903,-0
 .11968821,-0.00004349,0.00091725,0.00256359,0.00089506,0.00207553,-0.0
 0812469,0.00044243,0.00031263,0.00286725,0.00930979,0.00374440,0.00805
 278,0.00119233,0.01409735,0.00973985,0.06749307,0.10807273,0.11838236\
 \-0.00017271,0.,-0.00003303,0.00031071,0.,0.00015945,0.00005881,0.,-0.
 00007747,0.00008248,0.00015460,0.00006805,0.00008248,-0.00015460,0.000
 06805,0.00008685,0.,0.00002302,-0.00022431,0.00031945,-0.00010403,-0.0
 0022431,-0.00031945,-0.00010403\\\@
 The archive entry for this job was punched.


 DESK:  A WASTEBASKET WITH DRAWERS.
 Job cpu time:       0 days  0 hours  0 minutes  0.6 seconds.
 Elapsed time:       0 days  0 hours  0 minutes  0.5 seconds.
 File lengths (MBytes):  RWF=      6 Int=      0 D2E=      0 Chk=      1 Scr=      1
 Normal termination of Gaussian 16 at Tue May  3 16:48:04 2022.
