/mnt/lustre/scratch/nvme/SLURM/122918/uscqfafr.vApF05R68J
GAUSS_MDEF=1904MB
GAUSS_RDEF=SCF=Direct
 Entering Gaussian System, Link 0=g16.exe
 Initial command:
 /opt/cesga/2020/software/Core/g16/c1/l1.exe "/mnt/lustre/scratch/nvme/SLURM/122918/uscqfafr.vApF05R68J/Gau-3812866.inp" -scrdir="/mnt/lustre/scratch/nvme/SLURM/122918/uscqfafr.vApF05R68J/"
 Entering Link 1 = /opt/cesga/2020/software/Core/g16/c1/l1.exe PID=   3812891.
  
 Copyright (c) 1988-2019, Gaussian, Inc.  All Rights Reserved.
  
 This is part of the Gaussian(R) 16 program.  It is based on
 the Gaussian(R) 09 system (copyright 2009, Gaussian, Inc.),
 the Gaussian(R) 03 system (copyright 2003, Gaussian, Inc.),
 the Gaussian(R) 98 system (copyright 1998, Gaussian, Inc.),
 the Gaussian(R) 94 system (copyright 1995, Gaussian, Inc.),
 the Gaussian 92(TM) system (copyright 1992, Gaussian, Inc.),
 the Gaussian 90(TM) system (copyright 1990, Gaussian, Inc.),
 the Gaussian 88(TM) system (copyright 1988, Gaussian, Inc.),
 the Gaussian 86(TM) system (copyright 1986, Carnegie Mellon
 University), and the Gaussian 82(TM) system (copyright 1983,
 Carnegie Mellon University). Gaussian is a federally registered
 trademark of Gaussian, Inc.
  
 This software contains proprietary and confidential information,
 including trade secrets, belonging to Gaussian, Inc.
  
 This software is provided under written license and may be
 used, copied, transmitted, or stored only in accord with that
 written license.
  
 The following legend is applicable only to US Government
 contracts under FAR:
  
                    RESTRICTED RIGHTS LEGEND
  
 Use, reproduction and disclosure by the US Government is
 subject to restrictions as set forth in subparagraphs (a)
 and (c) of the Commercial Computer Software - Restricted
 Rights clause in FAR 52.227-19.
  
 Gaussian, Inc.
 340 Quinnipiac St., Bldg. 40, Wallingford CT 06492
  
  
 ---------------------------------------------------------------
 Warning -- This program may not be used in any manner that
 competes with the business of Gaussian, Inc. or will provide
 assistance to any competitor of Gaussian, Inc.  The licensee
 of this program is prohibited from giving any competitor of
 Gaussian, Inc. access to this program.  By using this program,
 the user acknowledges that Gaussian, Inc. is engaged in the
 business of creating and licensing software in the field of
 computational chemistry and represents and warrants to the
 licensee that it is not a competitor of Gaussian, Inc. and that
 it will not use this program in any manner prohibited above.
 ---------------------------------------------------------------
  

 Cite this work as:
 Gaussian 16, Revision C.01,
 M. J. Frisch, G. W. Trucks, H. B. Schlegel, G. E. Scuseria, 
 M. A. Robb, J. R. Cheeseman, G. Scalmani, V. Barone, 
 G. A. Petersson, H. Nakatsuji, X. Li, M. Caricato, A. V. Marenich, 
 J. Bloino, B. G. Janesko, R. Gomperts, B. Mennucci, H. P. Hratchian, 
 J. V. Ortiz, A. F. Izmaylov, J. L. Sonnenberg, D. Williams-Young, 
 F. Ding, F. Lipparini, F. Egidi, J. Goings, B. Peng, A. Petrone, 
 T. Henderson, D. Ranasinghe, V. G. Zakrzewski, J. Gao, N. Rega, 
 G. Zheng, W. Liang, M. Hada, M. Ehara, K. Toyota, R. Fukuda, 
 J. Hasegawa, M. Ishida, T. Nakajima, Y. Honda, O. Kitao, H. Nakai, 
 T. Vreven, K. Throssell, J. A. Montgomery, Jr., J. E. Peralta, 
 F. Ogliaro, M. J. Bearpark, J. J. Heyd, E. N. Brothers, K. N. Kudin, 
 V. N. Staroverov, T. A. Keith, R. Kobayashi, J. Normand, 
 K. Raghavachari, A. P. Rendell, J. C. Burant, S. S. Iyengar, 
 J. Tomasi, M. Cossi, J. M. Millam, M. Klene, C. Adamo, R. Cammi, 
 J. W. Ochterski, R. L. Martin, K. Morokuma, O. Farkas, 
 J. B. Foresman, and D. J. Fox, Gaussian, Inc., Wallingford CT, 2019.
 
 ******************************************
 Gaussian 16:  ES64L-G16RevC.01  3-Jul-2019
                 3-May-2022 
 ******************************************
 Default route: SCF=Direct
 --------------------
 # hf/sto-3g opt freq
 --------------------
 1/18=20,19=15,38=1/1,3;
 2/9=110,12=2,17=6,18=5,40=1/2;
 3/6=3,11=9,25=1,30=1,71=1/1,2,3;
 4//1;
 5/5=2,38=5/2;
 6/7=2,8=2,9=2,10=2,28=1/1;
 7//1,2,3,16;
 1/18=20,19=15/3(2);
 2/9=110/2;
 99//99;
 2/9=110/2;
 3/6=3,11=9,25=1,30=1,71=1/1,2,3;
 4/5=5,16=3,69=1/1;
 5/5=2,38=5/2;
 7//1,2,3,16;
 1/18=20,19=15/3(-5);
 2/9=110/2;
 6/7=2,8=2,9=2,10=2,19=2,28=1/1;
 99/9=1/99;
 --
 --
 --
 Symbolic Z-matrix:
 Charge =  0 Multiplicity = 2
 c
 c                    1    cc2
 h                    1    hc3      2    hcc3
 h                    1    hc4      2    hcc4     3    dih4     0
 o                    2    oc5      1    occ5     3    dih5     0
 h                    2    hc6      1    hcc6     5    dih6     0
 h                    5    ho7      2    hoc7     1    dih7     0
 h                    1    hc8      2    hcc8     3    dih8     0
       Variables:
  cc2                   1.5                      
  hc3                   1.089                    
  hcc3                109.471                    
  hc4                   1.089                    
  hcc4                109.471                    
  dih4                120.                       
  oc5                   1.38                     
  occ5                109.471                    
  dih5                180.                       
  hc6                   1.07                     
  hcc6                109.471                    
  dih6                120.                       
  ho7                   0.95                     
  hoc7                109.471                    
  dih7                170.                       
  hc8                   1.07                     
  hcc8                109.471                    
  dih8                240.                       
 
     6 tetrahedral angles replaced.

 GradGradGradGradGradGradGradGradGradGradGradGradGradGradGradGradGradGrad
 Berny optimization.
 Initialization pass.
                           ----------------------------
                           !    Initial Parameters    !
                           ! (Angstroms and Degrees)  !
 --------------------------                            --------------------------
 ! Name  Definition              Value          Derivative Info.                !
 --------------------------------------------------------------------------------
 ! R1    R(1,2)                  1.5            estimate D2E/DX2                !
 ! R2    R(1,3)                  1.089          estimate D2E/DX2                !
 ! R3    R(1,4)                  1.089          estimate D2E/DX2                !
 ! R4    R(1,8)                  1.07           estimate D2E/DX2                !
 ! R5    R(2,5)                  1.38           estimate D2E/DX2                !
 ! R6    R(2,6)                  1.07           estimate D2E/DX2                !
 ! R7    R(5,7)                  0.95           estimate D2E/DX2                !
 ! A1    A(2,1,3)              109.4712         estimate D2E/DX2                !
 ! A2    A(2,1,4)              109.4712         estimate D2E/DX2                !
 ! A3    A(2,1,8)              109.4712         estimate D2E/DX2                !
 ! A4    A(3,1,4)              109.4712         estimate D2E/DX2                !
 ! A5    A(3,1,8)              109.4712         estimate D2E/DX2                !
 ! A6    A(4,1,8)              109.4712         estimate D2E/DX2                !
 ! A7    A(1,2,5)              109.4712         estimate D2E/DX2                !
 ! A8    A(1,2,6)              109.4712         estimate D2E/DX2                !
 ! A9    A(5,2,6)              109.4712         estimate D2E/DX2                !
 ! A10   A(2,5,7)              109.4712         estimate D2E/DX2                !
 ! D1    D(3,1,2,5)            180.0            estimate D2E/DX2                !
 ! D2    D(3,1,2,6)            -60.0            estimate D2E/DX2                !
 ! D3    D(4,1,2,5)            -60.0            estimate D2E/DX2                !
 ! D4    D(4,1,2,6)             60.0            estimate D2E/DX2                !
 ! D5    D(8,1,2,5)             60.0            estimate D2E/DX2                !
 ! D6    D(8,1,2,6)            180.0            estimate D2E/DX2                !
 ! D7    D(1,2,5,7)            170.0            estimate D2E/DX2                !
 ! D8    D(6,2,5,7)             50.0            estimate D2E/DX2                !
 --------------------------------------------------------------------------------
 Trust Radius=3.00D-01 FncErr=1.00D-07 GrdErr=1.00D-07 EigMax=2.50D+02 EigMin=1.00D-04
 Number of steps in this run=     35 maximum allowed number of steps=    100.
 GradGradGradGradGradGradGradGradGradGradGradGradGradGradGradGradGradGrad

                          Input orientation:                          
 ---------------------------------------------------------------------
 Center     Atomic      Atomic             Coordinates (Angstroms)
 Number     Number       Type             X           Y           Z
 ---------------------------------------------------------------------
      1          6           0        0.000000    0.000000    0.000000
      2          6           0        0.000000    0.000000    1.500000
      3          1           0        1.026719    0.000000   -0.363000
      4          1           0       -0.513360   -0.889165   -0.363000
      5          8           0       -1.301076    0.000000    1.960000
      6          1           0        0.504403   -0.873651    1.856667
      7          1           0       -1.305612   -0.155531    2.897171
      8          1           0       -0.504403    0.873651   -0.356667
 ---------------------------------------------------------------------
                    Distance matrix (angstroms):
                    1          2          3          4          5
     1  C    0.000000
     2  C    1.500000   0.000000
     3  H    1.089000   2.127186   0.000000
     4  H    1.089000   2.127186   1.778330   0.000000
     5  O    2.352531   1.380000   3.288611   2.609107   0.000000
     6  H    2.113031   1.070000   2.441926   2.441926   2.008407
     7  H    3.181574   1.918567   4.011568   3.434326   0.950000
     8  H    1.070000   2.113031   1.762850   1.762850   2.600942
                    6          7          8
     6  H    0.000000
     7  H    2.207827   0.000000
     8  H    2.994929   3.505512   0.000000
 Stoichiometry    C2H5O(2)
 Framework group  C1[X(C2H5O)]
 Deg. of freedom    18
 Full point group                 C1      NOp   1
 Largest Abelian subgroup         C1      NOp   1
 Largest concise Abelian subgroup C1      NOp   1
                         Standard orientation:                         
 ---------------------------------------------------------------------
 Center     Atomic      Atomic             Coordinates (Angstroms)
 Number     Number       Type             X           Y           Z
 ---------------------------------------------------------------------
      1          6           0        1.206964   -0.176970    0.021541
      2          6           0       -0.093389    0.541341   -0.186096
      3          1           0        2.033221    0.512355   -0.145944
      4          1           0        1.252686   -0.557586    1.040836
      5          8           0       -1.140437   -0.332184    0.026144
      6          1           0       -0.164208    1.357058    0.502736
      7          1           0       -1.957437    0.152109    0.047839
      8          1           0        1.277782   -0.992687   -0.667291
 ---------------------------------------------------------------------
 Rotational constants (GHZ):          44.7559421           9.7644400           8.6073543
 Standard basis: STO-3G (5D, 7F)
 There are    20 symmetry adapted cartesian basis functions of A   symmetry.
 There are    20 symmetry adapted basis functions of A   symmetry.
    20 basis functions,    60 primitive gaussians,    20 cartesian basis functions
    13 alpha electrons       12 beta electrons
       nuclear repulsion energy        75.5989281661 Hartrees.
 NAtoms=    8 NActive=    8 NUniq=    8 SFac= 1.00D+00 NAtFMM=   60 NAOKFM=F Big=F
 Integral buffers will be    131072 words long.
 Raffenetti 2 integral format.
 Two-electron integral symmetry is turned on.
 One-electron integrals computed using PRISM.
 NBasis=    20 RedAO= T EigKep=  2.08D-01  NBF=    20
 NBsUse=    20 1.00D-06 EigRej= -1.00D+00 NBFU=    20
 ExpMin= 1.69D-01 ExpMax= 1.31D+02 ExpMxC= 1.31D+02 IAcc=3 IRadAn=         5 AccDes= 0.00D+00
 Harris functional with IExCor=  205 and IRadAn=       5 diagonalized for initial guess.
 HarFok:  IExCor=  205 AccDes= 0.00D+00 IRadAn=         5 IDoV= 1 UseB2=F ITyADJ=14
 ICtDFT=  3500011 ScaDFX=  1.000000  1.000000  1.000000  1.000000
 FoFCou: FMM=F IPFlag=           0 FMFlag=      100000 FMFlg1=           0
         NFxFlg=           0 DoJE=T BraDBF=F KetDBF=T FulRan=T
         wScrn=  0.000000 ICntrl=       500 IOpCl=  0 I1Cent=   200000004 NGrid=           0
         NMat0=    1 NMatS0=      1 NMatT0=    0 NMatD0=    1 NMtDS0=    0 NMtDT0=    0
 Petite list used in FoFCou.
 Initial guess <Sx>= 0.0000 <Sy>= 0.0000 <Sz>= 0.5000 <S**2>= 0.7500 S= 0.5000
 Keep R1 and R2 ints in memory in canonical form, NReq=854645.
 Requested convergence on RMS density matrix=1.00D-08 within 128 cycles.
 Requested convergence on MAX density matrix=1.00D-06.
 Requested convergence on             energy=1.00D-06.
 No special actions if energy rises.
 SCF Done:  E(UHF) =  -151.492252475     A.U. after   15 cycles
            NFock= 15  Conv=0.50D-08     -V/T= 2.0065
 <Sx>= 0.0000 <Sy>= 0.0000 <Sz>= 0.5000 <S**2>= 0.7558 S= 0.5029
 <L.S>=  0.00000000000    
 Annihilation of the first spin contaminant:
 S**2 before annihilation     0.7558,   after     0.7500

 **********************************************************************

            Population analysis using the SCF Density.

 **********************************************************************

 Orbital symmetries:
 Alpha Orbitals:
       Occupied  (A) (A) (A) (A) (A) (A) (A) (A) (A) (A) (A) (A)
                 (A)
       Virtual   (A) (A) (A) (A) (A) (A) (A)
 Beta  Orbitals:
       Occupied  (A) (A) (A) (A) (A) (A) (A) (A) (A) (A) (A) (A)
       Virtual   (A) (A) (A) (A) (A) (A) (A) (A)
 The electronic state is 2-A.
 Alpha  occ. eigenvalues --  -20.27215 -11.05932 -11.03400  -1.31617  -0.97254
 Alpha  occ. eigenvalues --   -0.78291  -0.64248  -0.58214  -0.51948  -0.49473
 Alpha  occ. eigenvalues --   -0.47472  -0.40179  -0.28668
 Alpha virt. eigenvalues --    0.57583   0.67821   0.68979   0.72979   0.76201
 Alpha virt. eigenvalues --    0.78828   0.80975
  Beta  occ. eigenvalues --  -20.26912 -11.03604 -11.03111  -1.29700  -0.94962
  Beta  occ. eigenvalues --   -0.73902  -0.62957  -0.53243  -0.51021  -0.48012
  Beta  occ. eigenvalues --   -0.41445  -0.38050
  Beta virt. eigenvalues --    0.30037   0.59680   0.69953   0.70438   0.73934
  Beta virt. eigenvalues --    0.77793   0.81530   0.83838
          Condensed to atoms (all electrons):
               1          2          3          4          5          6
     1  C    4.739684   0.361242   0.383380   0.381858  -0.023155  -0.030946
     2  C    0.361242   5.022869  -0.021061  -0.020459   0.282290   0.370174
     3  H    0.383380  -0.021061   0.616750  -0.020358   0.000714  -0.002307
     4  H    0.381858  -0.020459  -0.020358   0.613943  -0.001050  -0.002046
     5  O   -0.023155   0.282290   0.000714  -0.001050   7.809359  -0.020621
     6  H   -0.030946   0.370174  -0.002307  -0.002046  -0.020621   0.657013
     7  H    0.003123  -0.043907  -0.000096   0.000040   0.264492  -0.005540
     8  H    0.386146  -0.024062  -0.020291  -0.021184  -0.000748   0.002171
               7          8
     1  C    0.003123   0.386146
     2  C   -0.043907  -0.024062
     3  H   -0.000096  -0.020291
     4  H    0.000040  -0.021184
     5  O    0.264492  -0.000748
     6  H   -0.005540   0.002171
     7  H    0.577656   0.000019
     8  H    0.000019   0.607089
          Atomic-Atomic Spin Densities.
               1          2          3          4          5          6
     1  C   -0.078886  -0.019366   0.003014   0.001201   0.000674   0.004432
     2  C   -0.019366   1.099534  -0.002291  -0.007211  -0.053478  -0.015867
     3  H    0.003014  -0.002291   0.007314  -0.001790   0.000014   0.000452
     4  H    0.001201  -0.007211  -0.001790   0.052565   0.000718  -0.001537
     5  O    0.000674  -0.053478   0.000014   0.000718   0.124529   0.000642
     6  H    0.004432  -0.015867   0.000452  -0.001537   0.000642  -0.024377
     7  H    0.000047  -0.002889   0.000002  -0.000043   0.000011   0.000488
     8  H    0.003767  -0.003412   0.000307  -0.002672   0.000152   0.000194
               7          8
     1  C    0.000047   0.003767
     2  C   -0.002889  -0.003412
     3  H    0.000002   0.000307
     4  H   -0.000043  -0.002672
     5  O    0.000011   0.000152
     6  H    0.000488   0.000194
     7  H   -0.003975   0.000013
     8  H    0.000013   0.012154
 Mulliken charges and spin densities:
               1          2
     1  C   -0.201331  -0.085118
     2  C    0.072914   0.995020
     3  H    0.063268   0.007021
     4  H    0.069256   0.041230
     5  O   -0.311282   0.073263
     6  H    0.032103  -0.035574
     7  H    0.204213  -0.006346
     8  H    0.070860   0.010505
 Sum of Mulliken charges =   0.00000   1.00000
 Mulliken charges and spin densities with hydrogens summed into heavy atoms:
               1          2
     1  C    0.002053  -0.026363
     2  C    0.105017   0.959446
     5  O   -0.107070   0.066916
 Electronic spatial extent (au):  <R**2>=            176.3383
 Charge=              0.0000 electrons
 Dipole moment (field-independent basis, Debye):
    X=             -0.3812    Y=              1.1198    Z=              0.1976  Tot=              1.1993
 Quadrupole moment (field-independent basis, Debye-Ang):
   XX=            -15.3133   YY=            -18.3327   ZZ=            -17.8159
   XY=             -1.5648   XZ=             -0.0381   YZ=              0.3118
 Traceless Quadrupole moment (field-independent basis, Debye-Ang):
   XX=              1.8407   YY=             -1.1787   ZZ=             -0.6619
   XY=             -1.5648   XZ=             -0.0381   YZ=              0.3118
 Octapole moment (field-independent basis, Debye-Ang**2):
  XXX=            -14.0589  YYY=             -1.9024  ZZZ=              0.7484  XYY=             -1.5937
  XXY=              2.1474  XXZ=              0.1184  XZZ=             -2.0447  YZZ=             -0.9895
  YYZ=              0.2421  XYZ=             -0.0830
 Hexadecapole moment (field-independent basis, Debye-Ang**3):
 XXXX=           -122.9160 YYYY=            -41.7257 ZZZZ=            -21.5830 XXXY=              0.7342
 XXXZ=             -1.1157 YYYX=              1.6284 YYYZ=              0.9458 ZZZX=              0.3256
 ZZZY=             -0.0468 XXYY=            -29.9824 XXZZ=            -26.9975 YYZZ=            -10.1312
 XXYZ=             -0.1674 YYXZ=             -0.5179 ZZXY=             -0.0383
 N-N= 7.559892816612D+01 E-N=-5.075834055306D+02  KE= 1.505093266086D+02
                          Isotropic Fermi Contact Couplings
        Atom                 a.u.       MegaHertz       Gauss      10(-4) cm-1
     1  C(13)             -0.02859     -32.14085     -11.46865     -10.72103
     2  C(13)              0.36946     415.34905     148.20687     138.54553
     3  H(1)               0.00292      13.04898       4.65620       4.35267
     4  H(1)               0.02000      89.39088      31.89689      29.81759
     5  O(17)              0.01400      -8.48678      -3.02830      -2.83089
     6  H(1)              -0.00753     -33.66245     -12.01160     -11.22859
     7  H(1)              -0.00162      -7.24513      -2.58524      -2.41671
     8  H(1)               0.00473      21.15765       7.54958       7.05743
 --------------------------------------------------------
       Center         ----  Spin Dipole Couplings  ----
                      3XX-RR        3YY-RR        3ZZ-RR
 --------------------------------------------------------
     1   Atom        0.015379      0.000893     -0.016272
     2   Atom       -0.451569     -0.299971      0.751540
     3   Atom        0.021392     -0.013865     -0.007527
     4   Atom        0.007440     -0.000083     -0.007357
     5   Atom       -0.203071     -0.199641      0.402712
     6   Atom       -0.070366      0.043078      0.027288
     7   Atom        0.035453     -0.019039     -0.016413
     8   Atom        0.006329      0.005433     -0.011762
 --------------------------------------------------------
                        XY            XZ            YZ
 --------------------------------------------------------
     1   Atom       -0.014792      0.013026     -0.004687
     2   Atom       -0.037535      0.073775     -0.435072
     3   Atom       -0.005864      0.005195      0.000084
     4   Atom       -0.009363      0.009390     -0.003875
     5   Atom       -0.043566     -0.063743     -0.204899
     6   Atom       -0.010263     -0.003827      0.066198
     7   Atom       -0.005649     -0.015892     -0.002318
     8   Atom       -0.018088     -0.003460     -0.002251
 --------------------------------------------------------


 ---------------------------------------------------------------------------------
              Anisotropic Spin Dipole Couplings in Principal Axis System
 ---------------------------------------------------------------------------------

       Atom             a.u.   MegaHertz   Gauss  10(-4) cm-1        Axes

              Baa    -0.0210    -2.813    -1.004    -0.938 -0.3503 -0.0364  0.9359
     1 C(13)  Bbb    -0.0077    -1.038    -0.370    -0.346  0.4454  0.8726  0.2006
              Bcc     0.0287     3.851     1.374     1.285  0.8240 -0.4871  0.2894
 
              Baa    -0.4669   -62.651   -22.355   -20.898  0.7036  0.6816  0.2008
     2 C(13)  Bbb    -0.4463   -59.886   -21.369   -19.976  0.7081 -0.6486 -0.2792
              Bcc     0.9132   122.537    43.724    40.874  0.0601 -0.3386  0.9390
 
              Baa    -0.0149    -7.971    -2.844    -2.659  0.1767  0.9750 -0.1349
     3 H(1)   Bbb    -0.0083    -4.404    -1.572    -1.469 -0.1395  0.1605  0.9771
              Bcc     0.0232    12.375     4.416     4.128  0.9743 -0.1538  0.1643
 
              Baa    -0.0120    -6.382    -2.277    -2.129 -0.4648 -0.0787  0.8819
     4 H(1)   Bbb    -0.0058    -3.084    -1.100    -1.029  0.4063  0.8660  0.2914
              Bcc     0.0177     9.465     3.377     3.157  0.7867 -0.4938  0.3706
 
              Baa    -0.3011    21.789     7.775     7.268  0.5361  0.7963  0.2804
     5 O(17)  Bbb    -0.1682    12.167     4.342     4.059  0.8411 -0.5321 -0.0971
              Bcc     0.4693   -33.956   -12.116   -11.327 -0.0719 -0.2878  0.9550
 
              Baa    -0.0714   -38.074   -13.586   -12.700  0.9934  0.1092 -0.0347
     6 H(1)   Bbb    -0.0311   -16.591    -5.920    -5.534  0.0982 -0.6550  0.7492
              Bcc     0.1025    54.665    19.506    18.234 -0.0590  0.7477  0.6615
 
              Baa    -0.0240   -12.798    -4.567    -4.269  0.2554  0.6338  0.7301
     7 H(1)   Bbb    -0.0163    -8.718    -3.111    -2.908 -0.1093  0.7692 -0.6296
              Bcc     0.0403    21.516     7.677     7.177  0.9606 -0.0810 -0.2658
 
              Baa    -0.0160    -8.553    -3.052    -2.853  0.5178  0.5085  0.6879
     8 H(1)   Bbb    -0.0080    -4.251    -1.517    -1.418 -0.4658 -0.5069  0.7253
              Bcc     0.0240    12.804     4.569     4.271  0.7176 -0.6960 -0.0256
 

 ---------------------------------------------------------------------------------

 Calling FoFJK, ICntrl=      2127 FMM=F ISym2X=0 I1Cent= 0 IOpClX= 1 NMat=1 NMatS=1 NMatT=0.
 ***** Axes restored to original set *****
 -------------------------------------------------------------------
 Center     Atomic                   Forces (Hartrees/Bohr)
 Number     Number              X              Y              Z
 -------------------------------------------------------------------
      1        6           0.014881671    0.003533191   -0.013720748
      2        6          -0.012233994   -0.022307137    0.004676476
      3        1          -0.004392462   -0.000504948   -0.002832350
      4        1           0.001385853    0.002181328   -0.002268369
      5        8          -0.029763871    0.025315364   -0.044145167
      6        1           0.028701157   -0.009964126    0.018418145
      7        1           0.008315392   -0.008561017    0.050710491
      8        1          -0.006893747    0.010307346   -0.010838476
 -------------------------------------------------------------------
 Cartesian Forces:  Max     0.050710491 RMS     0.019206985

 GradGradGradGradGradGradGradGradGradGradGradGradGradGradGradGradGradGrad
 Berny optimization.
 FormGI is forming the generalized inverse of G from B-inverse, IUseBI=4.
 Internal  Forces:  Max     0.051387568 RMS     0.016163154
 Search for a local minimum.
 Step number   1 out of a maximum of   35
 All quantities printed in internal units (Hartrees-Bohrs-Radians)
 Mixed Optimization -- RFO/linear search
 Second derivative matrix not updated -- first step.
 ITU=  0
     Eigenvalues ---    0.00766   0.01956   0.04069   0.07537   0.07537
     Eigenvalues ---    0.12935   0.16000   0.16000   0.16000   0.16000
     Eigenvalues ---    0.23505   0.32377   0.34928   0.34928   0.37230
     Eigenvalues ---    0.37230   0.49102   0.57681
 RFO step:  Lambda=-2.73776718D-02 EMin= 7.65947526D-03
 Linear search not attempted -- first point.
 Iteration  1 RMS(Cart)=  0.10944625 RMS(Int)=  0.00980666
 Iteration  2 RMS(Cart)=  0.00882506 RMS(Int)=  0.00724432
 Iteration  3 RMS(Cart)=  0.00003206 RMS(Int)=  0.00724429
 Iteration  4 RMS(Cart)=  0.00000019 RMS(Int)=  0.00724429
 Variable       Old X    -DE/DX   Delta X   Delta X   Delta X     New X
                                 (Linear)    (Quad)   (Total)
    R1        2.83459   0.02966   0.00000   0.08446   0.08446   2.91905
    R2        2.05791  -0.00320   0.00000  -0.00849  -0.00849   2.04942
    R3        2.05791  -0.00168   0.00000  -0.00446  -0.00446   2.05346
    R4        2.02201   0.01528   0.00000   0.03823   0.03823   2.06023
    R5        2.60782   0.02241   0.00000   0.04323   0.04323   2.65105
    R6        2.02201   0.02780   0.00000   0.06957   0.06957   2.09158
    R7        1.79524   0.05139   0.00000   0.08505   0.08505   1.88029
    A1        1.91063   0.00418   0.00000   0.02268   0.02229   1.93292
    A2        1.91063   0.00176   0.00000   0.00725   0.00712   1.91775
    A3        1.91063   0.00756   0.00000   0.04213   0.04166   1.95229
    A4        1.91063  -0.00398   0.00000  -0.02478  -0.02483   1.88581
    A5        1.91063  -0.00467   0.00000  -0.02068  -0.02136   1.88928
    A6        1.91063  -0.00485   0.00000  -0.02659  -0.02680   1.88384
    A7        1.91063   0.01136   0.00000   0.08172   0.06387   1.97450
    A8        1.91063   0.01131   0.00000   0.13642   0.11721   2.02784
    A9        1.91063   0.00442   0.00000   0.12854   0.10598   2.01662
   A10        1.91063  -0.01536   0.00000  -0.08196  -0.08196   1.82867
    D1        3.14159  -0.00888   0.00000  -0.14047  -0.14398   2.99761
    D2       -1.04720   0.01042   0.00000   0.15054   0.15454  -0.89266
    D3       -1.04720  -0.01011   0.00000  -0.15249  -0.15631  -1.20351
    D4        1.04720   0.00918   0.00000   0.13852   0.14221   1.18941
    D5        1.04720  -0.01035   0.00000  -0.15482  -0.15876   0.88844
    D6        3.14159   0.00894   0.00000   0.13619   0.13976  -3.00183
    D7        2.96706   0.01206   0.00000   0.15427   0.15813   3.12519
    D8        0.87266  -0.01146   0.00000  -0.14156  -0.14542   0.72724
         Item               Value     Threshold  Converged?
 Maximum Force            0.051388     0.000450     NO 
 RMS     Force            0.016163     0.000300     NO 
 Maximum Displacement     0.246301     0.001800     NO 
 RMS     Displacement     0.104981     0.001200     NO 
 Predicted change in Energy=-1.794144D-02
 GradGradGradGradGradGradGradGradGradGradGradGradGradGradGradGradGradGrad

                          Input orientation:                          
 ---------------------------------------------------------------------
 Center     Atomic      Atomic             Coordinates (Angstroms)
 Number     Number       Type             X           Y           Z
 ---------------------------------------------------------------------
      1          6           0        0.002468   -0.002600   -0.040590
      2          6           0       -0.064480   -0.111645    1.498798
      3          1           0        1.032175    0.039735   -0.378332
      4          1           0       -0.464838   -0.872908   -0.493337
      5          8           0       -1.367057    0.014924    2.004104
      6          1           0        0.550743   -0.908215    1.959247
      7          1           0       -1.268439   -0.088710    2.988774
      8          1           0       -0.513902    0.884723   -0.407494
 ---------------------------------------------------------------------
                    Distance matrix (angstroms):
                    1          2          3          4          5
     1  C    0.000000
     2  C    1.544697   0.000000
     3  H    1.084508   2.179263   0.000000
     4  H    1.086642   2.169887   1.757041   0.000000
     5  O    2.461033   1.402876   3.381262   2.799903   0.000000
     6  H    2.262762   1.106814   2.568008   2.654773   2.128886
     7  H    3.286284   1.915743   4.080040   3.658666   0.995008
     8  H    1.090229   2.197426   1.762160   1.760410   2.701894
                    6          7          8
     6  H    0.000000
     7  H    2.245203   0.000000
     8  H    3.154293   3.612691   0.000000
 Stoichiometry    C2H5O(2)
 Framework group  C1[X(C2H5O)]
 Deg. of freedom    18
 Full point group                 C1      NOp   1
 Largest Abelian subgroup         C1      NOp   1
 Largest concise Abelian subgroup C1      NOp   1
                         Standard orientation:                         
 ---------------------------------------------------------------------
 Center     Atomic      Atomic             Coordinates (Angstroms)
 Number     Number       Type             X           Y           Z
 ---------------------------------------------------------------------
      1          6           0        1.263453   -0.166709    0.011490
      2          6           0       -0.110710    0.523216   -0.136050
      3          1           0        2.064394    0.508224   -0.269787
      4          1           0        1.419540   -0.461977    1.045533
      5          8           0       -1.190161   -0.355985    0.036729
      6          1           0       -0.216478    1.510637    0.352673
      7          1           0       -1.999890    0.212876   -0.067079
      8          1           0        1.337262   -1.060925   -0.607808
 ---------------------------------------------------------------------
 Rotational constants (GHZ):          44.1748637           9.0302970           7.9403814
 Standard basis: STO-3G (5D, 7F)
 There are    20 symmetry adapted cartesian basis functions of A   symmetry.
 There are    20 symmetry adapted basis functions of A   symmetry.
    20 basis functions,    60 primitive gaussians,    20 cartesian basis functions
    13 alpha electrons       12 beta electrons
       nuclear repulsion energy        73.4879330241 Hartrees.
 NAtoms=    8 NActive=    8 NUniq=    8 SFac= 1.00D+00 NAtFMM=   60 NAOKFM=F Big=F
 Integral buffers will be    131072 words long.
 Raffenetti 2 integral format.
 Two-electron integral symmetry is turned on.
 One-electron integrals computed using PRISM.
 NBasis=    20 RedAO= T EigKep=  2.21D-01  NBF=    20
 NBsUse=    20 1.00D-06 EigRej= -1.00D+00 NBFU=    20
 Initial guess from the checkpoint file:  "/mnt/lustre/scratch/nvme/SLURM/122918/uscqfafr.vApF05R68J/Gau-3812891.chk"
 B after Tr=    -0.000000    0.000000   -0.000000
         Rot=    0.999629    0.026545   -0.003508   -0.004965 Ang=   3.12 deg.
 Initial guess <Sx>= 0.0000 <Sy>= 0.0000 <Sz>= 0.5000 <S**2>= 0.7561 S= 0.5031
 ExpMin= 1.69D-01 ExpMax= 1.31D+02 ExpMxC= 1.31D+02 IAcc=3 IRadAn=         5 AccDes= 0.00D+00
 Harris functional with IExCor=  205 and IRadAn=       5 diagonalized for initial guess.
 HarFok:  IExCor=  205 AccDes= 0.00D+00 IRadAn=         5 IDoV= 1 UseB2=F ITyADJ=14
 ICtDFT=  3500011 ScaDFX=  1.000000  1.000000  1.000000  1.000000
 FoFCou: FMM=F IPFlag=           0 FMFlag=      100000 FMFlg1=           0
         NFxFlg=           0 DoJE=T BraDBF=F KetDBF=T FulRan=T
         wScrn=  0.000000 ICntrl=       500 IOpCl=  0 I1Cent=   200000004 NGrid=           0
         NMat0=    1 NMatS0=      1 NMatT0=    0 NMatD0=    1 NMtDS0=    0 NMtDT0=    0
 Petite list used in FoFCou.
 Keep R1 and R2 ints in memory in canonical form, NReq=854614.
 Requested convergence on RMS density matrix=1.00D-08 within 128 cycles.
 Requested convergence on MAX density matrix=1.00D-06.
 Requested convergence on             energy=1.00D-06.
 No special actions if energy rises.
 SCF Done:  E(UHF) =  -151.503626809     A.U. after   15 cycles
            NFock= 15  Conv=0.91D-08     -V/T= 2.0079
 <Sx>= 0.0000 <Sy>= 0.0000 <Sz>= 0.5000 <S**2>= 0.7590 S= 0.5045
 <L.S>=  0.00000000000    
 Annihilation of the first spin contaminant:
 S**2 before annihilation     0.7590,   after     0.7501
 Calling FoFJK, ICntrl=      2127 FMM=F ISym2X=0 I1Cent= 0 IOpClX= 1 NMat=1 NMatS=1 NMatT=0.
 ***** Axes restored to original set *****
 -------------------------------------------------------------------
 Center     Atomic                   Forces (Hartrees/Bohr)
 Number     Number              X              Y              Z
 -------------------------------------------------------------------
      1        6          -0.002166407    0.000533920    0.011571917
      2        6           0.001316854   -0.007484527   -0.010724551
      3        1           0.002048191   -0.000122768    0.001463683
      4        1          -0.000761248   -0.001237571   -0.002088512
      5        8           0.004270248    0.000686170    0.005873158
      6        1          -0.004300644    0.009220091   -0.004611602
      7        1          -0.001178219    0.000704007   -0.006047388
      8        1           0.000771225   -0.002299323    0.004563294
 -------------------------------------------------------------------
 Cartesian Forces:  Max     0.011571917 RMS     0.004863185

 GradGradGradGradGradGradGradGradGradGradGradGradGradGradGradGradGradGrad
 Berny optimization.
 Using GEDIIS/GDIIS optimizer.
 FormGI is forming the generalized inverse of G from B-inverse, IUseBI=4.
 Internal  Forces:  Max     0.015682423 RMS     0.004476190
 Search for a local minimum.
 Step number   2 out of a maximum of   35
 All quantities printed in internal units (Hartrees-Bohrs-Radians)
 Mixed Optimization -- RFO/linear search
 Update second derivatives using D2CorX and points    1    2
 DE= -1.14D-02 DEPred=-1.79D-02 R= 6.34D-01
 TightC=F SS=  1.41D+00  RLast= 4.93D-01 DXNew= 5.0454D-01 1.4777D+00
 Trust test= 6.34D-01 RLast= 4.93D-01 DXMaxT set to 5.05D-01
 ITU=  1  0
 Use linear search instead of GDIIS.
     Eigenvalues ---    0.00766   0.01956   0.03854   0.07185   0.07396
     Eigenvalues ---    0.14213   0.15734   0.16000   0.16000   0.16666
     Eigenvalues ---    0.22708   0.34137   0.34922   0.35004   0.37192
     Eigenvalues ---    0.40328   0.48946   0.56389
 RFO step:  Lambda=-1.60128807D-03 EMin= 7.66012216D-03
 Quartic linear search produced a step of -0.09003.
 Iteration  1 RMS(Cart)=  0.03021749 RMS(Int)=  0.00076353
 Iteration  2 RMS(Cart)=  0.00082976 RMS(Int)=  0.00032938
 Iteration  3 RMS(Cart)=  0.00000035 RMS(Int)=  0.00032938
 Variable       Old X    -DE/DX   Delta X   Delta X   Delta X     New X
                                 (Linear)    (Quad)   (Total)
    R1        2.91905  -0.01568  -0.00760  -0.03972  -0.04732   2.87173
    R2        2.04942   0.00148   0.00076   0.00343   0.00419   2.05362
    R3        2.05346   0.00219   0.00040   0.00548   0.00588   2.05934
    R4        2.06023  -0.00377  -0.00344  -0.00724  -0.01068   2.04955
    R5        2.65105  -0.00281  -0.00389  -0.00296  -0.00685   2.64420
    R6        2.09158  -0.01094  -0.00626  -0.02317  -0.02943   2.06215
    R7        1.88029  -0.00617  -0.00766  -0.00533  -0.01298   1.86731
    A1        1.93292  -0.00237  -0.00201  -0.01287  -0.01505   1.91787
    A2        1.91775   0.00342  -0.00064   0.02293   0.02241   1.94016
    A3        1.95229  -0.00518  -0.00375  -0.02984  -0.03369   1.91860
    A4        1.88581   0.00043   0.00224   0.00632   0.00859   1.89440
    A5        1.88928   0.00292   0.00192   0.00946   0.01100   1.90028
    A6        1.88384   0.00102   0.00241   0.00537   0.00797   1.89180
    A7        1.97450   0.00127  -0.00575   0.02038   0.01538   1.98988
    A8        2.02784  -0.00055  -0.01055   0.02030   0.01045   2.03829
    A9        2.01662   0.00079  -0.00954   0.03205   0.02349   2.04011
   A10        1.82867   0.00108   0.00738   0.00184   0.00922   1.83789
    D1        2.99761  -0.00198   0.01296  -0.06221  -0.04887   2.94875
    D2       -0.89266   0.00015  -0.01391   0.03684   0.02289  -0.86976
    D3       -1.20351  -0.00074   0.01407  -0.04783  -0.03349  -1.23700
    D4        1.18941   0.00138  -0.01280   0.05122   0.03827   1.22768
    D5        0.88844  -0.00053   0.01429  -0.04504  -0.03077   0.85768
    D6       -3.00183   0.00160  -0.01258   0.05402   0.04099  -2.96083
    D7        3.12519   0.00075  -0.01424   0.04656   0.03240  -3.12559
    D8        0.72724  -0.00076   0.01309  -0.04659  -0.03358   0.69366
         Item               Value     Threshold  Converged?
 Maximum Force            0.015682     0.000450     NO 
 RMS     Force            0.004476     0.000300     NO 
 Maximum Displacement     0.086900     0.001800     NO 
 RMS     Displacement     0.030620     0.001200     NO 
 Predicted change in Energy=-1.008804D-03
 GradGradGradGradGradGradGradGradGradGradGradGradGradGradGradGradGradGrad

                          Input orientation:                          
 ---------------------------------------------------------------------
 Center     Atomic      Atomic             Coordinates (Angstroms)
 Number     Number       Type             X           Y           Z
 ---------------------------------------------------------------------
      1          6           0       -0.002220   -0.016822   -0.035310
      2          6           0       -0.075055   -0.135636    1.477941
      3          1           0        1.035522    0.046711   -0.351587
      4          1           0       -0.460089   -0.878730   -0.520111
      5          8           0       -1.363717    0.021406    2.000039
      6          1           0        0.556616   -0.894507    1.942605
      7          1           0       -1.260583   -0.063522    2.979102
      8          1           0       -0.523802    0.876403   -0.361509
 ---------------------------------------------------------------------
                    Distance matrix (angstroms):
                    1          2          3          4          5
     1  C    0.000000
     2  C    1.519654   0.000000
     3  H    1.086727   2.147977   0.000000
     4  H    1.089754   2.166253   1.766832   0.000000
     5  O    2.449037   1.399250   3.359633   2.824526   0.000000
     6  H    2.234900   1.091240   2.525581   2.664378   2.128350
     7  H    3.266855   1.914201   4.046942   3.681012   0.988137
     8  H    1.084576   2.146899   1.766346   1.763436   2.648280
                    6          7          8
     6  H    0.000000
     7  H    2.251016   0.000000
     8  H    3.100382   3.547674   0.000000
 Stoichiometry    C2H5O(2)
 Framework group  C1[X(C2H5O)]
 Deg. of freedom    18
 Full point group                 C1      NOp   1
 Largest Abelian subgroup         C1      NOp   1
 Largest concise Abelian subgroup C1      NOp   1
                         Standard orientation:                         
 ---------------------------------------------------------------------
 Center     Atomic      Atomic             Coordinates (Angstroms)
 Number     Number       Type             X           Y           Z
 ---------------------------------------------------------------------
      1          6           0        1.252752   -0.170284    0.010073
      2          6           0       -0.097869    0.514491   -0.117428
      3          1           0        2.041480    0.505533   -0.309546
      4          1           0        1.447459   -0.467525    1.040267
      5          8           0       -1.189766   -0.346966    0.036048
      6          1           0       -0.188370    1.509164    0.322163
      7          1           0       -1.989182    0.221214   -0.084448
      8          1           0        1.277440   -1.057901   -0.612687
 ---------------------------------------------------------------------
 Rotational constants (GHZ):          45.1734890           9.1357047           8.0419679
 Standard basis: STO-3G (5D, 7F)
 There are    20 symmetry adapted cartesian basis functions of A   symmetry.
 There are    20 symmetry adapted basis functions of A   symmetry.
    20 basis functions,    60 primitive gaussians,    20 cartesian basis functions
    13 alpha electrons       12 beta electrons
       nuclear repulsion energy        73.9744019181 Hartrees.
 NAtoms=    8 NActive=    8 NUniq=    8 SFac= 1.00D+00 NAtFMM=   60 NAOKFM=F Big=F
 Integral buffers will be    131072 words long.
 Raffenetti 2 integral format.
 Two-electron integral symmetry is turned on.
 One-electron integrals computed using PRISM.
 NBasis=    20 RedAO= T EigKep=  2.17D-01  NBF=    20
 NBsUse=    20 1.00D-06 EigRej= -1.00D+00 NBFU=    20
 Initial guess from the checkpoint file:  "/mnt/lustre/scratch/nvme/SLURM/122918/uscqfafr.vApF05R68J/Gau-3812891.chk"
 B after Tr=     0.000000   -0.000000    0.000000
         Rot=    0.999992    0.000124   -0.002037    0.003366 Ang=   0.45 deg.
 Initial guess <Sx>= 0.0000 <Sy>= 0.0000 <Sz>= 0.5000 <S**2>= 0.7588 S= 0.5044
 ExpMin= 1.69D-01 ExpMax= 1.31D+02 ExpMxC= 1.31D+02 IAcc=3 IRadAn=         5 AccDes= 0.00D+00
 Harris functional with IExCor=  205 and IRadAn=       5 diagonalized for initial guess.
 HarFok:  IExCor=  205 AccDes= 0.00D+00 IRadAn=         5 IDoV= 1 UseB2=F ITyADJ=14
 ICtDFT=  3500011 ScaDFX=  1.000000  1.000000  1.000000  1.000000
 FoFCou: FMM=F IPFlag=           0 FMFlag=      100000 FMFlg1=           0
         NFxFlg=           0 DoJE=T BraDBF=F KetDBF=T FulRan=T
         wScrn=  0.000000 ICntrl=       500 IOpCl=  0 I1Cent=   200000004 NGrid=           0
         NMat0=    1 NMatS0=      1 NMatT0=    0 NMatD0=    1 NMtDS0=    0 NMtDT0=    0
 Petite list used in FoFCou.
 Keep R1 and R2 ints in memory in canonical form, NReq=854614.
 Requested convergence on RMS density matrix=1.00D-08 within 128 cycles.
 Requested convergence on MAX density matrix=1.00D-06.
 Requested convergence on             energy=1.00D-06.
 No special actions if energy rises.
 SCF Done:  E(UHF) =  -151.504493889     A.U. after   13 cycles
            NFock= 13  Conv=0.63D-08     -V/T= 2.0077
 <Sx>= 0.0000 <Sy>= 0.0000 <Sz>= 0.5000 <S**2>= 0.7593 S= 0.5046
 <L.S>=  0.00000000000    
 Annihilation of the first spin contaminant:
 S**2 before annihilation     0.7593,   after     0.7501
 Calling FoFJK, ICntrl=      2127 FMM=F ISym2X=0 I1Cent= 0 IOpClX= 1 NMat=1 NMatS=1 NMatT=0.
 ***** Axes restored to original set *****
 -------------------------------------------------------------------
 Center     Atomic                   Forces (Hartrees/Bohr)
 Number     Number              X              Y              Z
 -------------------------------------------------------------------
      1        6           0.000605266   -0.000634238    0.000690678
      2        6          -0.000929967   -0.000773255    0.000400587
      3        1          -0.000882169   -0.000178092   -0.000567838
      4        1           0.000671659    0.000948941   -0.000722498
      5        8           0.000254750    0.000511730   -0.001605606
      6        1           0.000305252   -0.000355291    0.001888127
      7        1           0.000632012   -0.000420608    0.001641322
      8        1          -0.000656803    0.000900813   -0.001724772
 -------------------------------------------------------------------
 Cartesian Forces:  Max     0.001888127 RMS     0.000914057

 GradGradGradGradGradGradGradGradGradGradGradGradGradGradGradGradGradGrad
 Berny optimization.
 Using GEDIIS/GDIIS optimizer.
 FormGI is forming the generalized inverse of G from B-inverse, IUseBI=4.
 Internal  Forces:  Max     0.002383187 RMS     0.001062946
 Search for a local minimum.
 Step number   3 out of a maximum of   35
 All quantities printed in internal units (Hartrees-Bohrs-Radians)
 Mixed Optimization -- RFO/linear search
 Update second derivatives using D2CorX and points    1    2    3
 DE= -8.67D-04 DEPred=-1.01D-03 R= 8.60D-01
 TightC=F SS=  1.41D+00  RLast= 1.30D-01 DXNew= 8.4853D-01 3.8994D-01
 Trust test= 8.60D-01 RLast= 1.30D-01 DXMaxT set to 5.05D-01
 ITU=  1  1  0
 Use linear search instead of GDIIS.
     Eigenvalues ---    0.00766   0.01953   0.04006   0.07319   0.07454
     Eigenvalues ---    0.14372   0.15303   0.16000   0.16055   0.17367
     Eigenvalues ---    0.22463   0.34293   0.34920   0.35263   0.37101
     Eigenvalues ---    0.42865   0.48853   0.57795
 RFO step:  Lambda=-9.35785306D-05 EMin= 7.65531710D-03
 Quartic linear search produced a step of -0.08856.
 Iteration  1 RMS(Cart)=  0.00836312 RMS(Int)=  0.00005736
 Iteration  2 RMS(Cart)=  0.00005199 RMS(Int)=  0.00003037
 Iteration  3 RMS(Cart)=  0.00000000 RMS(Int)=  0.00003037
 Variable       Old X    -DE/DX   Delta X   Delta X   Delta X     New X
                                 (Linear)    (Quad)   (Total)
    R1        2.87173   0.00238   0.00419  -0.00122   0.00297   2.87470
    R2        2.05362  -0.00069  -0.00037  -0.00114  -0.00151   2.05211
    R3        2.05934  -0.00071  -0.00052  -0.00092  -0.00144   2.05789
    R4        2.04955   0.00158   0.00095   0.00213   0.00308   2.05263
    R5        2.64420  -0.00079   0.00061  -0.00274  -0.00213   2.64207
    R6        2.06215   0.00123   0.00261  -0.00198   0.00063   2.06277
    R7        1.86731   0.00173   0.00115   0.00056   0.00171   1.86902
    A1        1.91787   0.00057   0.00133   0.00037   0.00172   1.91959
    A2        1.94016   0.00115  -0.00198   0.01020   0.00819   1.94835
    A3        1.91860   0.00152   0.00298   0.00365   0.00663   1.92523
    A4        1.89440  -0.00113  -0.00076  -0.00632  -0.00709   1.88731
    A5        1.90028  -0.00091  -0.00097  -0.00276  -0.00370   1.89657
    A6        1.89180  -0.00129  -0.00071  -0.00557  -0.00632   1.88548
    A7        1.98988   0.00050  -0.00136   0.00431   0.00299   1.99286
    A8        2.03829   0.00144  -0.00093   0.01154   0.01068   2.04896
    A9        2.04011  -0.00130  -0.00208  -0.00314  -0.00519   2.03491
   A10        1.83789  -0.00092  -0.00082  -0.00342  -0.00424   1.83365
    D1        2.94875  -0.00007   0.00433  -0.01477  -0.01047   2.93827
    D2       -0.86976   0.00027  -0.00203   0.00106  -0.00097  -0.87073
    D3       -1.23700  -0.00037   0.00297  -0.01587  -0.01293  -1.24993
    D4        1.22768  -0.00003  -0.00339  -0.00004  -0.00343   1.22425
    D5        0.85768  -0.00024   0.00272  -0.01388  -0.01114   0.84653
    D6       -2.96083   0.00009  -0.00363   0.00195  -0.00164  -2.96247
    D7       -3.12559   0.00054  -0.00287   0.00157  -0.00136  -3.12695
    D8        0.69366  -0.00091   0.00297  -0.02025  -0.01721   0.67645
         Item               Value     Threshold  Converged?
 Maximum Force            0.002383     0.000450     NO 
 RMS     Force            0.001063     0.000300     NO 
 Maximum Displacement     0.020048     0.001800     NO 
 RMS     Displacement     0.008343     0.001200     NO 
 Predicted change in Energy=-5.470271D-05
 GradGradGradGradGradGradGradGradGradGradGradGradGradGradGradGradGradGrad

                          Input orientation:                          
 ---------------------------------------------------------------------
 Center     Atomic      Atomic             Coordinates (Angstroms)
 Number     Number       Type             X           Y           Z
 ---------------------------------------------------------------------
      1          6           0       -0.003064   -0.017398   -0.035876
      2          6           0       -0.077733   -0.139711    1.478583
      3          1           0        1.033641    0.049258   -0.352169
      4          1           0       -0.453855   -0.876359   -0.530720
      5          8           0       -1.362820    0.025710    2.003880
      6          1           0        0.550465   -0.895891    1.953019
      7          1           0       -1.253988   -0.065050    2.982719
      8          1           0       -0.525975    0.874745   -0.368266
 ---------------------------------------------------------------------
                    Distance matrix (angstroms):
                    1          2          3          4          5
     1  C    0.000000
     2  C    1.521224   0.000000
     3  H    1.085930   2.150004   0.000000
     4  H    1.088989   2.172882   1.761049   0.000000
     5  O    2.451815   1.398123   3.360737   2.839744   0.000000
     6  H    2.243624   1.091572   2.537845   2.679179   2.124287
     7  H    3.267873   1.910909   4.045713   3.693601   0.989044
     8  H    1.086204   2.154274   1.764679   1.760102   2.654854
                    6          7          8
     6  H    0.000000
     7  H    2.237551   0.000000
     8  H    3.111630   3.555604   0.000000
 Stoichiometry    C2H5O(2)
 Framework group  C1[X(C2H5O)]
 Deg. of freedom    18
 Full point group                 C1      NOp   1
 Largest Abelian subgroup         C1      NOp   1
 Largest concise Abelian subgroup C1      NOp   1
                         Standard orientation:                         
 ---------------------------------------------------------------------
 Center     Atomic      Atomic             Coordinates (Angstroms)
 Number     Number       Type             X           Y           Z
 ---------------------------------------------------------------------
      1          6           0        1.254465   -0.167698    0.009913
      2          6           0       -0.100150    0.513072   -0.115358
      3          1           0        2.040307    0.506396   -0.317642
      4          1           0        1.464090   -0.458425    1.038229
      5          8           0       -1.190506   -0.348951    0.035595
      6          1           0       -0.202687    1.510735    0.315554
      7          1           0       -1.988638    0.223015   -0.082929
      8          1           0        1.285086   -1.062357   -0.605299
 ---------------------------------------------------------------------
 Rotational constants (GHZ):          45.2533733           9.1133593           8.0226254
 Standard basis: STO-3G (5D, 7F)
 There are    20 symmetry adapted cartesian basis functions of A   symmetry.
 There are    20 symmetry adapted basis functions of A   symmetry.
    20 basis functions,    60 primitive gaussians,    20 cartesian basis functions
    13 alpha electrons       12 beta electrons
       nuclear repulsion energy        73.9365726590 Hartrees.
 NAtoms=    8 NActive=    8 NUniq=    8 SFac= 1.00D+00 NAtFMM=   60 NAOKFM=F Big=F
 Integral buffers will be    131072 words long.
 Raffenetti 2 integral format.
 Two-electron integral symmetry is turned on.
 One-electron integrals computed using PRISM.
 NBasis=    20 RedAO= T EigKep=  2.18D-01  NBF=    20
 NBsUse=    20 1.00D-06 EigRej= -1.00D+00 NBFU=    20
 Initial guess from the checkpoint file:  "/mnt/lustre/scratch/nvme/SLURM/122918/uscqfafr.vApF05R68J/Gau-3812891.chk"
 B after Tr=     0.000000    0.000000   -0.000000
         Rot=    0.999998    0.001527   -0.000286   -0.001132 Ang=   0.22 deg.
 Initial guess <Sx>= 0.0000 <Sy>= 0.0000 <Sz>= 0.5000 <S**2>= 0.7593 S= 0.5046
 ExpMin= 1.69D-01 ExpMax= 1.31D+02 ExpMxC= 1.31D+02 IAcc=3 IRadAn=         5 AccDes= 0.00D+00
 Harris functional with IExCor=  205 and IRadAn=       5 diagonalized for initial guess.
 HarFok:  IExCor=  205 AccDes= 0.00D+00 IRadAn=         5 IDoV= 1 UseB2=F ITyADJ=14
 ICtDFT=  3500011 ScaDFX=  1.000000  1.000000  1.000000  1.000000
 FoFCou: FMM=F IPFlag=           0 FMFlag=      100000 FMFlg1=           0
         NFxFlg=           0 DoJE=T BraDBF=F KetDBF=T FulRan=T
         wScrn=  0.000000 ICntrl=       500 IOpCl=  0 I1Cent=   200000004 NGrid=           0
         NMat0=    1 NMatS0=      1 NMatT0=    0 NMatD0=    1 NMtDS0=    0 NMtDT0=    0
 Petite list used in FoFCou.
 Keep R1 and R2 ints in memory in canonical form, NReq=854614.
 Requested convergence on RMS density matrix=1.00D-08 within 128 cycles.
 Requested convergence on MAX density matrix=1.00D-06.
 Requested convergence on             energy=1.00D-06.
 No special actions if energy rises.
 SCF Done:  E(UHF) =  -151.504551694     A.U. after   11 cycles
            NFock= 11  Conv=0.54D-08     -V/T= 2.0077
 <Sx>= 0.0000 <Sy>= 0.0000 <Sz>= 0.5000 <S**2>= 0.7594 S= 0.5047
 <L.S>=  0.00000000000    
 Annihilation of the first spin contaminant:
 S**2 before annihilation     0.7594,   after     0.7501
 Calling FoFJK, ICntrl=      2127 FMM=F ISym2X=0 I1Cent= 0 IOpClX= 1 NMat=1 NMatS=1 NMatT=0.
 ***** Axes restored to original set *****
 -------------------------------------------------------------------
 Center     Atomic                   Forces (Hartrees/Bohr)
 Number     Number              X              Y              Z
 -------------------------------------------------------------------
      1        6           0.000303197    0.000167255   -0.000096781
      2        6          -0.000428830   -0.000366093   -0.000826561
      3        1           0.000171043    0.000126461   -0.000161986
      4        1          -0.000055135   -0.000191392    0.000123110
      5        8          -0.000467580    0.000580637    0.000005837
      6        1           0.000672032   -0.000261447    0.000369217
      7        1          -0.000139400   -0.000162782    0.000581724
      8        1          -0.000055326    0.000107362    0.000005441
 -------------------------------------------------------------------
 Cartesian Forces:  Max     0.000826561 RMS     0.000345673

 GradGradGradGradGradGradGradGradGradGradGradGradGradGradGradGradGradGrad
 Berny optimization.
 Using GEDIIS/GDIIS optimizer.
 FormGI is forming the generalized inverse of G from B-inverse, IUseBI=4.
 Internal  Forces:  Max     0.000828101 RMS     0.000305891
 Search for a local minimum.
 Step number   4 out of a maximum of   35
 All quantities printed in internal units (Hartrees-Bohrs-Radians)
 Mixed Optimization -- En-DIIS/RFO-DIIS
 Update second derivatives using D2CorX and points    1    2    3    4
 DE= -5.78D-05 DEPred=-5.47D-05 R= 1.06D+00
 TightC=F SS=  1.41D+00  RLast= 3.36D-02 DXNew= 8.4853D-01 1.0089D-01
 Trust test= 1.06D+00 RLast= 3.36D-02 DXMaxT set to 5.05D-01
 ITU=  1  1  1  0
 Use linear search instead of GDIIS.
     Eigenvalues ---    0.00733   0.01820   0.03420   0.07268   0.07405
     Eigenvalues ---    0.14646   0.15829   0.15944   0.16263   0.19137
     Eigenvalues ---    0.22412   0.34317   0.34923   0.35894   0.37949
     Eigenvalues ---    0.41362   0.51709   0.56172
 RFO step:  Lambda=-1.52109514D-05 EMin= 7.32853161D-03
 Quartic linear search produced a step of  0.05940.
 Iteration  1 RMS(Cart)=  0.00422989 RMS(Int)=  0.00002360
 Iteration  2 RMS(Cart)=  0.00001915 RMS(Int)=  0.00000800
 Iteration  3 RMS(Cart)=  0.00000000 RMS(Int)=  0.00000800
 Variable       Old X    -DE/DX   Delta X   Delta X   Delta X     New X
                                 (Linear)    (Quad)   (Total)
    R1        2.87470   0.00016   0.00018  -0.00036  -0.00018   2.87452
    R2        2.05211   0.00022  -0.00009   0.00062   0.00053   2.05264
    R3        2.05789   0.00012  -0.00009   0.00033   0.00024   2.05813
    R4        2.05263   0.00011   0.00018   0.00031   0.00050   2.05312
    R5        2.64207   0.00083  -0.00013   0.00127   0.00115   2.64322
    R6        2.06277   0.00073   0.00004   0.00134   0.00138   2.06415
    R7        1.86902   0.00058   0.00010   0.00068   0.00079   1.86981
    A1        1.91959   0.00023   0.00010   0.00149   0.00159   1.92118
    A2        1.94835  -0.00030   0.00049  -0.00081  -0.00032   1.94803
    A3        1.92523  -0.00005   0.00039  -0.00054  -0.00015   1.92508
    A4        1.88731   0.00006  -0.00042   0.00014  -0.00028   1.88703
    A5        1.89657  -0.00007  -0.00022  -0.00049  -0.00071   1.89586
    A6        1.88548   0.00014  -0.00038   0.00020  -0.00018   1.88529
    A7        1.99286   0.00031   0.00018   0.00253   0.00268   1.99555
    A8        2.04896  -0.00011   0.00063   0.00162   0.00224   2.05120
    A9        2.03491   0.00005  -0.00031   0.00201   0.00167   2.03659
   A10        1.83365   0.00034  -0.00025   0.00250   0.00225   1.83591
    D1        2.93827  -0.00023  -0.00062  -0.01175  -0.01238   2.92590
    D2       -0.87073   0.00013  -0.00006  -0.00237  -0.00242  -0.87315
    D3       -1.24993  -0.00019  -0.00077  -0.01110  -0.01187  -1.26180
    D4        1.22425   0.00017  -0.00020  -0.00171  -0.00191   1.22234
    D5        0.84653  -0.00025  -0.00066  -0.01175  -0.01241   0.83412
    D6       -2.96247   0.00011  -0.00010  -0.00236  -0.00245  -2.96493
    D7       -3.12695   0.00002  -0.00008  -0.00361  -0.00369  -3.13064
    D8        0.67645  -0.00027  -0.00102  -0.01276  -0.01378   0.66267
         Item               Value     Threshold  Converged?
 Maximum Force            0.000828     0.000450     NO 
 RMS     Force            0.000306     0.000300     NO 
 Maximum Displacement     0.011977     0.001800     NO 
 RMS     Displacement     0.004228     0.001200     NO 
 Predicted change in Energy=-7.774945D-06
 GradGradGradGradGradGradGradGradGradGradGradGradGradGradGradGradGradGrad

                          Input orientation:                          
 ---------------------------------------------------------------------
 Center     Atomic      Atomic             Coordinates (Angstroms)
 Number     Number       Type             X           Y           Z
 ---------------------------------------------------------------------
      1          6           0       -0.002587   -0.017959   -0.036659
      2          6           0       -0.078943   -0.142872    1.477407
      3          1           0        1.034071    0.053122   -0.353108
      4          1           0       -0.450098   -0.877810   -0.533212
      5          8           0       -1.361984    0.032047    2.006230
      6          1           0        0.549187   -0.898894    1.953864
      7          1           0       -1.254475   -0.065330    2.985000
      8          1           0       -0.528499    0.872999   -0.368351
 ---------------------------------------------------------------------
                    Distance matrix (angstroms):
                    1          2          3          4          5
     1  C    0.000000
     2  C    1.521128   0.000000
     3  H    1.086210   2.151278   0.000000
     4  H    1.089116   2.172667   1.761200   0.000000
     5  O    2.454355   1.398730   3.362737   2.847481   0.000000
     6  H    2.245591   1.092303   2.542354   2.680403   2.126492
     7  H    3.271069   1.913302   4.049004   3.699319   0.989460
     8  H    1.086466   2.154279   1.764669   1.760301   2.653400
                    6          7          8
     6  H    0.000000
     7  H    2.238586   0.000000
     8  H    3.113469   3.557030   0.000000
 Stoichiometry    C2H5O(2)
 Framework group  C1[X(C2H5O)]
 Deg. of freedom    18
 Full point group                 C1      NOp   1
 Largest Abelian subgroup         C1      NOp   1
 Largest concise Abelian subgroup C1      NOp   1
                         Standard orientation:                         
 ---------------------------------------------------------------------
 Center     Atomic      Atomic             Coordinates (Angstroms)
 Number     Number       Type             X           Y           Z
 ---------------------------------------------------------------------
      1          6           0        1.255555   -0.167529    0.009988
      2          6           0       -0.099639    0.512109   -0.114004
      3          1           0        2.040971    0.502467   -0.327767
      4          1           0        1.470341   -0.449241    1.039881
      5          8           0       -1.191974   -0.348761    0.034830
      6          1           0       -0.202849    1.513468    0.309971
      7          1           0       -1.990786    0.223877   -0.079259
      8          1           0        1.282616   -1.067968   -0.597371
 ---------------------------------------------------------------------
 Rotational constants (GHZ):          45.3130510           9.0963775           8.0094638
 Standard basis: STO-3G (5D, 7F)
 There are    20 symmetry adapted cartesian basis functions of A   symmetry.
 There are    20 symmetry adapted basis functions of A   symmetry.
    20 basis functions,    60 primitive gaussians,    20 cartesian basis functions
    13 alpha electrons       12 beta electrons
       nuclear repulsion energy        73.9011182151 Hartrees.
 NAtoms=    8 NActive=    8 NUniq=    8 SFac= 1.00D+00 NAtFMM=   60 NAOKFM=F Big=F
 Integral buffers will be    131072 words long.
 Raffenetti 2 integral format.
 Two-electron integral symmetry is turned on.
 One-electron integrals computed using PRISM.
 NBasis=    20 RedAO= T EigKep=  2.18D-01  NBF=    20
 NBsUse=    20 1.00D-06 EigRej= -1.00D+00 NBFU=    20
 Initial guess from the checkpoint file:  "/mnt/lustre/scratch/nvme/SLURM/122918/uscqfafr.vApF05R68J/Gau-3812891.chk"
 B after Tr=     0.000000   -0.000000    0.000000
         Rot=    0.999998    0.001871   -0.000208    0.000101 Ang=   0.22 deg.
 Initial guess <Sx>= 0.0000 <Sy>= 0.0000 <Sz>= 0.5000 <S**2>= 0.7594 S= 0.5047
 Keep R1 and R2 ints in memory in canonical form, NReq=854614.
 Requested convergence on RMS density matrix=1.00D-08 within 128 cycles.
 Requested convergence on MAX density matrix=1.00D-06.
 Requested convergence on             energy=1.00D-06.
 No special actions if energy rises.
 SCF Done:  E(UHF) =  -151.504560689     A.U. after   11 cycles
            NFock= 11  Conv=0.56D-08     -V/T= 2.0077
 <Sx>= 0.0000 <Sy>= 0.0000 <Sz>= 0.5000 <S**2>= 0.7596 S= 0.5048
 <L.S>=  0.00000000000    
 Annihilation of the first spin contaminant:
 S**2 before annihilation     0.7596,   after     0.7501
 Calling FoFJK, ICntrl=      2127 FMM=F ISym2X=0 I1Cent= 0 IOpClX= 1 NMat=1 NMatS=1 NMatT=0.
 ***** Axes restored to original set *****
 -------------------------------------------------------------------
 Center     Atomic                   Forces (Hartrees/Bohr)
 Number     Number              X              Y              Z
 -------------------------------------------------------------------
      1        6          -0.000081020    0.000144961   -0.000292597
      2        6           0.000012379   -0.000291715    0.000333867
      3        1           0.000010887    0.000045650    0.000128046
      4        1          -0.000006014   -0.000106737    0.000074076
      5        8          -0.000244134    0.000315472   -0.000234674
      6        1           0.000055519    0.000100639   -0.000086546
      7        1           0.000234750   -0.000129893   -0.000040105
      8        1           0.000017633   -0.000078376    0.000117933
 -------------------------------------------------------------------
 Cartesian Forces:  Max     0.000333867 RMS     0.000167614

 GradGradGradGradGradGradGradGradGradGradGradGradGradGradGradGradGradGrad
 Berny optimization.
 Using GEDIIS/GDIIS optimizer.
 FormGI is forming the generalized inverse of G from B-inverse, IUseBI=4.
 Internal  Forces:  Max     0.000477358 RMS     0.000129779
 Search for a local minimum.
 Step number   5 out of a maximum of   35
 All quantities printed in internal units (Hartrees-Bohrs-Radians)
 Mixed Optimization -- En-DIIS/RFO-DIIS
 Swapping is turned off.
 Update second derivatives using D2CorX and points    2    3    4    5
 DE= -9.00D-06 DEPred=-7.77D-06 R= 1.16D+00
 TightC=F SS=  1.41D+00  RLast= 2.64D-02 DXNew= 8.4853D-01 7.9082D-02
 Trust test= 1.16D+00 RLast= 2.64D-02 DXMaxT set to 5.05D-01
 ITU=  1  1  1  1  0
     Eigenvalues ---    0.00521   0.01517   0.03362   0.07285   0.07403
     Eigenvalues ---    0.14889   0.15856   0.16209   0.18913   0.19531
     Eigenvalues ---    0.23902   0.34316   0.34936   0.36164   0.37978
     Eigenvalues ---    0.43408   0.53759   0.57362
 En-DIIS/RFO-DIIS/Sim-DIIS IScMMF=       -3 using points:     5    4
 RFO step:  Lambda=-6.21924918D-06.
 DidBck=F Rises=F RFO-DIIS coefs:    1.98758   -0.98758
 Iteration  1 RMS(Cart)=  0.00458708 RMS(Int)=  0.00002909
 Iteration  2 RMS(Cart)=  0.00002312 RMS(Int)=  0.00000977
 Iteration  3 RMS(Cart)=  0.00000000 RMS(Int)=  0.00000977
 Variable       Old X    -DE/DX   Delta X   Delta X   Delta X     New X
                                 (Linear)    (Quad)   (Total)
    R1        2.87452  -0.00003  -0.00018  -0.00006  -0.00024   2.87428
    R2        2.05264  -0.00002   0.00052  -0.00050   0.00002   2.05266
    R3        2.05813   0.00005   0.00024  -0.00005   0.00019   2.05832
    R4        2.05312  -0.00011   0.00049  -0.00049   0.00000   2.05313
    R5        2.64322  -0.00007   0.00113  -0.00112   0.00001   2.64323
    R6        2.06415  -0.00008   0.00136  -0.00124   0.00012   2.06428
    R7        1.86981  -0.00000   0.00078  -0.00047   0.00031   1.87011
    A1        1.92118  -0.00014   0.00157  -0.00204  -0.00047   1.92071
    A2        1.94803  -0.00010  -0.00032   0.00025  -0.00007   1.94796
    A3        1.92508  -0.00008  -0.00015  -0.00015  -0.00030   1.92478
    A4        1.88703   0.00012  -0.00027   0.00057   0.00029   1.88732
    A5        1.89586   0.00009  -0.00070   0.00080   0.00010   1.89596
    A6        1.88529   0.00011  -0.00018   0.00065   0.00047   1.88577
    A7        1.99555  -0.00014   0.00265  -0.00194   0.00069   1.99624
    A8        2.05120  -0.00005   0.00221  -0.00079   0.00140   2.05260
    A9        2.03659   0.00020   0.00165   0.00048   0.00211   2.03870
   A10        1.83591  -0.00048   0.00222  -0.00517  -0.00295   1.83296
    D1        2.92590  -0.00008  -0.01222  -0.00033  -0.01255   2.91334
    D2       -0.87315   0.00000  -0.00239  -0.00335  -0.00574  -0.87889
    D3       -1.26180  -0.00009  -0.01172  -0.00082  -0.01254  -1.27434
    D4        1.22234  -0.00000  -0.00189  -0.00384  -0.00573   1.21661
    D5        0.83412  -0.00007  -0.01226   0.00007  -0.01219   0.82193
    D6       -2.96493   0.00002  -0.00242  -0.00295  -0.00537  -2.97030
    D7       -3.13064  -0.00009  -0.00364  -0.00221  -0.00584  -3.13648
    D8        0.66267  -0.00008  -0.01361   0.00128  -0.01233   0.65034
         Item               Value     Threshold  Converged?
 Maximum Force            0.000477     0.000450     NO 
 RMS     Force            0.000130     0.000300     YES
 Maximum Displacement     0.013855     0.001800     NO 
 RMS     Displacement     0.004584     0.001200     NO 
 Predicted change in Energy=-3.108998D-06
 GradGradGradGradGradGradGradGradGradGradGradGradGradGradGradGradGradGrad

                          Input orientation:                          
 ---------------------------------------------------------------------
 Center     Atomic      Atomic             Coordinates (Angstroms)
 Number     Number       Type             X           Y           Z
 ---------------------------------------------------------------------
      1          6           0       -0.002707   -0.018460   -0.036921
      2          6           0       -0.079994   -0.145120    1.476827
      3          1           0        1.034104    0.057303   -0.351810
      4          1           0       -0.446134   -0.879842   -0.534699
      5          8           0       -1.361179    0.039379    2.006909
      6          1           0        0.546296   -0.902276    1.954055
      7          1           0       -1.251862   -0.066511    2.984757
      8          1           0       -0.531853    0.870831   -0.367947
 ---------------------------------------------------------------------
                    Distance matrix (angstroms):
                    1          2          3          4          5
     1  C    0.000000
     2  C    1.521003   0.000000
     3  H    1.086220   2.150838   0.000000
     4  H    1.089215   2.172582   1.761475   0.000000
     5  O    2.454798   1.398736   3.361735   2.853427   0.000000
     6  H    2.246446   1.092369   2.544751   2.679424   2.127902
     7  H    3.270051   1.911363   4.046437   3.700984   0.989621
     8  H    1.086467   2.153955   1.764741   1.760684   2.649346
                    6          7          8
     6  H    0.000000
     7  H    2.234775   0.000000
     8  H    3.114161   3.554947   0.000000
 Stoichiometry    C2H5O(2)
 Framework group  C1[X(C2H5O)]
 Deg. of freedom    18
 Full point group                 C1      NOp   1
 Largest Abelian subgroup         C1      NOp   1
 Largest concise Abelian subgroup C1      NOp   1
                         Standard orientation:                         
 ---------------------------------------------------------------------
 Center     Atomic      Atomic             Coordinates (Angstroms)
 Number     Number       Type             X           Y           Z
 ---------------------------------------------------------------------
      1          6           0        1.255710   -0.167472    0.010161
      2          6           0       -0.099660    0.511659   -0.113153
      3          1           0        2.039316    0.499124   -0.338386
      4          1           0        1.475815   -0.439310    1.041687
      5          8           0       -1.192236   -0.349205    0.033998
      6          1           0       -0.203069    1.515060    0.306087
      7          1           0       -1.989337    0.227176   -0.074468
      8          1           0        1.278861   -1.073528   -0.588953
 ---------------------------------------------------------------------
 Rotational constants (GHZ):          45.3159208           9.0957148           8.0078083
 Standard basis: STO-3G (5D, 7F)
 There are    20 symmetry adapted cartesian basis functions of A   symmetry.
 There are    20 symmetry adapted basis functions of A   symmetry.
    20 basis functions,    60 primitive gaussians,    20 cartesian basis functions
    13 alpha electrons       12 beta electrons
       nuclear repulsion energy        73.8996790491 Hartrees.
 NAtoms=    8 NActive=    8 NUniq=    8 SFac= 1.00D+00 NAtFMM=   60 NAOKFM=F Big=F
 Integral buffers will be    131072 words long.
 Raffenetti 2 integral format.
 Two-electron integral symmetry is turned on.
 One-electron integrals computed using PRISM.
 NBasis=    20 RedAO= T EigKep=  2.18D-01  NBF=    20
 NBsUse=    20 1.00D-06 EigRej= -1.00D+00 NBFU=    20
 Initial guess from the checkpoint file:  "/mnt/lustre/scratch/nvme/SLURM/122918/uscqfafr.vApF05R68J/Gau-3812891.chk"
 B after Tr=    -0.000000    0.000000   -0.000000
         Rot=    0.999998    0.001809   -0.000238    0.000032 Ang=   0.21 deg.
 Initial guess <Sx>= 0.0000 <Sy>= 0.0000 <Sz>= 0.5000 <S**2>= 0.7596 S= 0.5048
 Keep R1 and R2 ints in memory in canonical form, NReq=854614.
 Requested convergence on RMS density matrix=1.00D-08 within 128 cycles.
 Requested convergence on MAX density matrix=1.00D-06.
 Requested convergence on             energy=1.00D-06.
 No special actions if energy rises.
 SCF Done:  E(UHF) =  -151.504563473     A.U. after   11 cycles
            NFock= 11  Conv=0.34D-08     -V/T= 2.0077
 <Sx>= 0.0000 <Sy>= 0.0000 <Sz>= 0.5000 <S**2>= 0.7596 S= 0.5048
 <L.S>=  0.00000000000    
 Annihilation of the first spin contaminant:
 S**2 before annihilation     0.7596,   after     0.7501
 Calling FoFJK, ICntrl=      2127 FMM=F ISym2X=0 I1Cent= 0 IOpClX= 1 NMat=1 NMatS=1 NMatT=0.
 ***** Axes restored to original set *****
 -------------------------------------------------------------------
 Center     Atomic                   Forces (Hartrees/Bohr)
 Number     Number              X              Y              Z
 -------------------------------------------------------------------
      1        6          -0.000047135   -0.000015724   -0.000195970
      2        6           0.000237931    0.000060644    0.000016194
      3        1           0.000000646    0.000013806    0.000031605
      4        1           0.000040111   -0.000003021    0.000032124
      5        8           0.000235351   -0.000071459    0.000305597
      6        1          -0.000233558    0.000095557   -0.000180394
      7        1          -0.000250712    0.000027560   -0.000117712
      8        1           0.000017365   -0.000107362    0.000108556
 -------------------------------------------------------------------
 Cartesian Forces:  Max     0.000305597 RMS     0.000137910

 GradGradGradGradGradGradGradGradGradGradGradGradGradGradGradGradGradGrad
 Berny optimization.
 Using GEDIIS/GDIIS optimizer.
 FormGI is forming the generalized inverse of G from B-inverse, IUseBI=4.
 Internal  Forces:  Max     0.000439057 RMS     0.000120568
 Search for a local minimum.
 Step number   6 out of a maximum of   35
 All quantities printed in internal units (Hartrees-Bohrs-Radians)
 Mixed Optimization -- En-DIIS/RFO-DIIS
 Swapping is turned off.
 Update second derivatives using D2CorX and points    2    3    4    5    6
 DE= -2.78D-06 DEPred=-3.11D-06 R= 8.95D-01
 TightC=F SS=  1.41D+00  RLast= 2.76D-02 DXNew= 8.4853D-01 8.2736D-02
 Trust test= 8.95D-01 RLast= 2.76D-02 DXMaxT set to 5.05D-01
 ITU=  1  1  1  1  1  0
     Eigenvalues ---    0.00330   0.01576   0.03912   0.07296   0.07407
     Eigenvalues ---    0.14821   0.15858   0.16436   0.18141   0.21689
     Eigenvalues ---    0.27733   0.34374   0.35073   0.36404   0.38267
     Eigenvalues ---    0.43982   0.54752   0.58119
 En-DIIS/RFO-DIIS/Sim-DIIS IScMMF=       -3 using points:     6    5    4
 RFO step:  Lambda=-1.93748971D-06.
 DidBck=F Rises=F RFO-DIIS coefs:    1.20002   -0.00908   -0.19094
 Iteration  1 RMS(Cart)=  0.00196221 RMS(Int)=  0.00000506
 Iteration  2 RMS(Cart)=  0.00000301 RMS(Int)=  0.00000360
 Iteration  3 RMS(Cart)=  0.00000000 RMS(Int)=  0.00000360
 Variable       Old X    -DE/DX   Delta X   Delta X   Delta X     New X
                                 (Linear)    (Quad)   (Total)
    R1        2.87428   0.00001  -0.00008   0.00028   0.00020   2.87448
    R2        2.05266  -0.00001   0.00010  -0.00015  -0.00004   2.05261
    R3        2.05832  -0.00003   0.00008  -0.00014  -0.00006   2.05826
    R4        2.05313  -0.00013   0.00010  -0.00028  -0.00019   2.05294
    R5        2.64323   0.00008   0.00022  -0.00009   0.00013   2.64336
    R6        2.06428  -0.00028   0.00029  -0.00070  -0.00041   2.06387
    R7        1.87011  -0.00015   0.00021  -0.00027  -0.00006   1.87006
    A1        1.92071  -0.00002   0.00021  -0.00032  -0.00011   1.92061
    A2        1.94796  -0.00001  -0.00007   0.00002  -0.00005   1.94791
    A3        1.92478  -0.00010  -0.00009  -0.00024  -0.00033   1.92446
    A4        1.88732   0.00002   0.00001   0.00007   0.00008   1.88740
    A5        1.89596   0.00006  -0.00012   0.00033   0.00021   1.89617
    A6        1.88577   0.00005   0.00006   0.00016   0.00022   1.88599
    A7        1.99624   0.00003   0.00065  -0.00048   0.00016   1.99640
    A8        2.05260  -0.00009   0.00071  -0.00088  -0.00018   2.05242
    A9        2.03870  -0.00000   0.00074  -0.00061   0.00012   2.03882
   A10        1.83296   0.00044  -0.00016   0.00146   0.00130   1.83426
    D1        2.91334   0.00001  -0.00487   0.00039  -0.00448   2.90886
    D2       -0.87889  -0.00007  -0.00161  -0.00267  -0.00428  -0.88316
    D3       -1.27434   0.00002  -0.00478   0.00028  -0.00449  -1.27884
    D4        1.21661  -0.00006  -0.00151  -0.00278  -0.00429   1.21232
    D5        0.82193   0.00001  -0.00481   0.00034  -0.00447   0.81746
    D6       -2.97030  -0.00007  -0.00154  -0.00272  -0.00426  -2.97457
    D7       -3.13648  -0.00008  -0.00187  -0.00069  -0.00256  -3.13904
    D8        0.65034   0.00003  -0.00510   0.00245  -0.00265   0.64769
         Item               Value     Threshold  Converged?
 Maximum Force            0.000439     0.000450     YES
 RMS     Force            0.000121     0.000300     YES
 Maximum Displacement     0.005115     0.001800     NO 
 RMS     Displacement     0.001962     0.001200     NO 
 Predicted change in Energy=-9.420278D-07
 GradGradGradGradGradGradGradGradGradGradGradGradGradGradGradGradGradGrad

                          Input orientation:                          
 ---------------------------------------------------------------------
 Center     Atomic      Atomic             Coordinates (Angstroms)
 Number     Number       Type             X           Y           Z
 ---------------------------------------------------------------------
      1          6           0       -0.002550   -0.018587   -0.037113
      2          6           0       -0.079655   -0.145520    1.476729
      3          1           0        1.034139    0.059152   -0.351841
      4          1           0       -0.444321   -0.880770   -0.534908
      5          8           0       -1.360164    0.042086    2.007541
      6          1           0        0.544942   -0.904198    1.953262
      7          1           0       -1.252330   -0.066589    2.985219
      8          1           0       -0.533391    0.869729   -0.367717
 ---------------------------------------------------------------------
                    Distance matrix (angstroms):
                    1          2          3          4          5
     1  C    0.000000
     2  C    1.521110   0.000000
     3  H    1.086196   2.150837   0.000000
     4  H    1.089184   2.172616   1.761480   0.000000
     5  O    2.455077   1.398806   3.361497   2.855605   0.000000
     6  H    2.246252   1.092153   2.545753   2.677719   2.127869
     7  H    3.270893   1.912312   4.047187   3.702306   0.989592
     8  H    1.086368   2.153739   1.764777   1.760720   2.647716
                    6          7          8
     6  H    0.000000
     7  H    2.235332   0.000000
     8  H    3.113931   3.554679   0.000000
 Stoichiometry    C2H5O(2)
 Framework group  C1[X(C2H5O)]
 Deg. of freedom    18
 Full point group                 C1      NOp   1
 Largest Abelian subgroup         C1      NOp   1
 Largest concise Abelian subgroup C1      NOp   1
                         Standard orientation:                         
 ---------------------------------------------------------------------
 Center     Atomic      Atomic             Coordinates (Angstroms)
 Number     Number       Type             X           Y           Z
 ---------------------------------------------------------------------
      1          6           0        1.255875   -0.167542    0.010276
      2          6           0       -0.099567    0.511637   -0.113282
      3          1           0        2.038980    0.497410   -0.342439
      4          1           0        1.477744   -0.435240    1.042475
      5          8           0       -1.192369   -0.349078    0.033736
      6          1           0       -0.202767    1.514939    0.305683
      7          1           0       -1.990106    0.226822   -0.072314
      8          1           0        1.277248   -1.075880   -0.585259
 ---------------------------------------------------------------------
 Rotational constants (GHZ):          45.3258129           9.0936671           8.0064266
 Standard basis: STO-3G (5D, 7F)
[...]
      5        8          -0.000008092    0.000003187   -0.000005220
      6        1           0.000007050    0.000002080   -0.000000398
      7        1           0.000000647    0.000002879    0.000014121
      8        1          -0.000001392   -0.000000726    0.000004306
 -------------------------------------------------------------------
 Cartesian Forces:  Max     0.000014560 RMS     0.000006656
 FormGI is forming the generalized inverse of G from B-inverse, IUseBI=4.

 GradGradGradGradGradGradGradGradGradGradGradGradGradGradGradGradGradGrad
 Berny optimization.
 Internal  Forces:  Max     0.000015431 RMS     0.000006270
 Search for a local minimum.
 Step number   1 out of a maximum of    2
 All quantities printed in internal units (Hartrees-Bohrs-Radians)
 Second derivative matrix not updated -- analytic derivatives used.
 ITU=  0
     Eigenvalues ---    0.00110   0.00684   0.02465   0.08349   0.08616
     Eigenvalues ---    0.14412   0.17885   0.18274   0.20088   0.23616
     Eigenvalues ---    0.29393   0.41834   0.46345   0.46700   0.48020
     Eigenvalues ---    0.48618   0.56101   0.65202
 Angle between quadratic step and forces=  67.66 degrees.
 Linear search not attempted -- first point.
 Iteration  1 RMS(Cart)=  0.00016430 RMS(Int)=  0.00000005
 Iteration  2 RMS(Cart)=  0.00000005 RMS(Int)=  0.00000000
 Variable       Old X    -DE/DX   Delta X   Delta X   Delta X     New X
                                 (Linear)    (Quad)   (Total)
    R1        2.87450   0.00001   0.00000   0.00001   0.00001   2.87451
    R2        2.05272   0.00002   0.00000   0.00003   0.00003   2.05275
    R3        2.05822  -0.00000   0.00000  -0.00001  -0.00001   2.05821
    R4        2.05276  -0.00000   0.00000  -0.00000  -0.00000   2.05275
    R5        2.64315   0.00001   0.00000   0.00002   0.00002   2.64317
    R6        2.06378   0.00000   0.00000   0.00000   0.00000   2.06378
    R7        1.86980   0.00001   0.00000   0.00002   0.00002   1.86982
    A1        1.92080   0.00000   0.00000   0.00001   0.00001   1.92081
    A2        1.94800  -0.00000   0.00000  -0.00001  -0.00001   1.94798
    A3        1.92388  -0.00001   0.00000  -0.00003  -0.00003   1.92385
    A4        1.88717   0.00000   0.00000   0.00001   0.00001   1.88718
    A5        1.89630   0.00000   0.00000   0.00002   0.00002   1.89632
    A6        1.88640   0.00000   0.00000   0.00001   0.00001   1.88640
    A7        1.99573   0.00001   0.00000   0.00007   0.00007   1.99580
    A8        2.05140  -0.00000   0.00000   0.00004   0.00004   2.05143
    A9        2.03816   0.00000   0.00000   0.00006   0.00006   2.03822
   A10        1.83460   0.00000   0.00000  -0.00001  -0.00001   1.83459
    D1        2.88893  -0.00000   0.00000  -0.00006  -0.00006   2.88887
    D2       -0.90672   0.00000   0.00000   0.00020   0.00020  -0.90652
    D3       -1.29887  -0.00000   0.00000  -0.00004  -0.00004  -1.29891
    D4        1.18866   0.00001   0.00000   0.00021   0.00021   1.18888
    D5        0.79762  -0.00001   0.00000  -0.00007  -0.00007   0.79755
    D6       -2.99804   0.00000   0.00000   0.00019   0.00019  -2.99785
    D7        3.13984   0.00001   0.00000   0.00062   0.00062   3.14046
    D8        0.64713   0.00000   0.00000   0.00038   0.00038   0.64751
         Item               Value     Threshold  Converged?
 Maximum Force            0.000015     0.000450     YES
 RMS     Force            0.000006     0.000300     YES
 Maximum Displacement     0.000547     0.001800     YES
 RMS     Displacement     0.000164     0.001200     YES
 Predicted change in Energy=-4.890630D-09
 Optimization completed.
    -- Stationary point found.
                           ----------------------------
                           !   Optimized Parameters   !
                           ! (Angstroms and Degrees)  !
 --------------------------                            --------------------------
 ! Name  Definition              Value          Derivative Info.                !
 --------------------------------------------------------------------------------
 ! R1    R(1,2)                  1.5211         -DE/DX =    0.0                 !
 ! R2    R(1,3)                  1.0863         -DE/DX =    0.0                 !
 ! R3    R(1,4)                  1.0892         -DE/DX =    0.0                 !
 ! R4    R(1,8)                  1.0863         -DE/DX =    0.0                 !
 ! R5    R(2,5)                  1.3987         -DE/DX =    0.0                 !
 ! R6    R(2,6)                  1.0921         -DE/DX =    0.0                 !
 ! R7    R(5,7)                  0.9895         -DE/DX =    0.0                 !
 ! A1    A(2,1,3)              110.0537         -DE/DX =    0.0                 !
 ! A2    A(2,1,4)              111.612          -DE/DX =    0.0                 !
 ! A3    A(2,1,8)              110.2304         -DE/DX =    0.0                 !
 ! A4    A(3,1,4)              108.1268         -DE/DX =    0.0                 !
 ! A5    A(3,1,8)              108.6498         -DE/DX =    0.0                 !
 ! A6    A(4,1,8)              108.0825         -DE/DX =    0.0                 !
 ! A7    A(1,2,5)              114.3472         -DE/DX =    0.0                 !
 ! A8    A(1,2,6)              117.5363         -DE/DX =    0.0                 !
 ! A9    A(5,2,6)              116.7781         -DE/DX =    0.0                 !
 ! A10   A(2,5,7)              105.1147         -DE/DX =    0.0                 !
 ! D1    D(3,1,2,5)            165.5235         -DE/DX =    0.0                 !
 ! D2    D(3,1,2,6)            -51.9515         -DE/DX =    0.0                 !
 ! D3    D(4,1,2,5)            -74.4196         -DE/DX =    0.0                 !
 ! D4    D(4,1,2,6)             68.1054         -DE/DX =    0.0                 !
 ! D5    D(8,1,2,5)             45.7            -DE/DX =    0.0                 !
 ! D6    D(8,1,2,6)           -171.775          -DE/DX =    0.0                 !
 ! D7    D(1,2,5,7)            179.8993         -DE/DX =    0.0                 !
 ! D8    D(6,2,5,7)             37.0778         -DE/DX =    0.0                 !
 --------------------------------------------------------------------------------
 GradGradGradGradGradGradGradGradGradGradGradGradGradGradGradGradGradGrad


 ----------------------------------------------------------------------

 Electric dipole moment (input orientation):
 (Debye = 10**-18 statcoulomb cm , SI units = C m)
                  (au)            (Debye)         (10**-30 SI)
   Tot        0.500493D+00      0.127213D+01      0.424335D+01
   x          0.346026D+00      0.879510D+00      0.293373D+01
   y         -0.191712D+00     -0.487284D+00     -0.162541D+01
   z          0.306603D+00      0.779307D+00      0.259949D+01

 Dipole polarizability, Alpha (input orientation).
 (esu units = cm**3 , SI units = C**2 m**2 J**-1)
 Alpha(0;0):
               (au)            (10**-24 esu)      (10**-40 SI)
   iso        0.124381D+02      0.184313D+01      0.205076D+01
   aniso      0.870041D+01      0.128927D+01      0.143450D+01
   xx         0.124988D+02      0.185213D+01      0.206077D+01
   yx        -0.162228D+01     -0.240397D+00     -0.267477D+00
   yy         0.854091D+01      0.126563D+01      0.140821D+01
   zx        -0.256004D+01     -0.379359D+00     -0.422093D+00
   zy        -0.104481D+01     -0.154825D+00     -0.172266D+00
   zz         0.162746D+02      0.241164D+01      0.268332D+01

 First dipole hyperpolarizability, Beta (input orientation).
 ||, _|_  parallel and perpendicular components, (z) with respect to z axis,
 vector components x,y,z.  Values do not include the 1/n! factor of 1/2.
 (esu units = statvolt**-1 cm**4 , SI units = C**3 m**3 J**-2)
 Beta(0;0,0):
               (au)            (10**-30 esu)      (10**-50 SI)
   || (z)     0.105879D+01      0.914711D-02      0.339486D-02
   _|_(z)     0.352930D+00      0.304904D-02      0.113162D-02
   x          0.863140D+02      0.745686D+00      0.276754D+00
   y          0.382603D+01      0.330539D-01      0.122676D-01
   z          0.529395D+01      0.457356D-01      0.169743D-01
   ||         0.173122D+02      0.149564D+00      0.555090D-01
   xxx        0.242164D+02      0.209210D+00      0.776464D-01
   xxy        0.849648D-01      0.734030D-03      0.272428D-03
   yxy       -0.691246D+00     -0.597182D-02     -0.221638D-02
   yyy        0.628351D+00      0.542847D-02      0.201472D-02
   xxz       -0.107821D+02     -0.931493D-01     -0.345714D-01
   yxz       -0.241680D+01     -0.208793D-01     -0.774914D-02
   yyz       -0.169053D+01     -0.146048D-01     -0.542044D-02
   zxz        0.524622D+01      0.453232D-01      0.168213D-01
   zyz        0.562028D+00      0.485548D-02      0.180206D-02
   zzz        0.142373D+02      0.122999D+00      0.456500D-01

 ----------------------------------------------------------------------

 Dipole orientation:
     6          0.03960520         -0.05967799         -0.03165685
     6         -2.07974704          0.79119209          1.71394053
     1          1.85525198          0.18587382          0.89396573
     1         -0.15321263         -2.04287686         -0.54741614
     8         -4.41210145          1.12215615          0.51526018
     1         -2.11807813          0.00504777          3.62173796
     1         -5.58309550          1.66437924          1.86837270
     1          0.02701643          1.05163200         -1.75752967

 Electric dipole moment (dipole orientation):
 (Debye = 10**-18 statcoulomb cm , SI units = C m)
                  (au)            (Debye)         (10**-30 SI)
   Tot        0.500493D+00      0.127213D+01      0.424335D+01
   x          0.000000D+00      0.000000D+00      0.000000D+00
   y          0.000000D+00      0.000000D+00      0.000000D+00
   z          0.500493D+00      0.127213D+01      0.424335D+01

 Dipole polarizability, Alpha (dipole orientation).
 (esu units = cm**3 , SI units = C**2 m**2 J**-1)
 Alpha(0;0):
               (au)            (10**-24 esu)      (10**-40 SI)
   iso        0.124381D+02      0.184313D+01      0.205076D+01
   aniso      0.870041D+01      0.128927D+01      0.143450D+01
   xx         0.165498D+02      0.245243D+01      0.272870D+01
   yx        -0.248047D+01     -0.367568D+00     -0.408974D+00
   yy         0.824835D+01      0.122228D+01      0.135997D+01
   zx        -0.135874D+01     -0.201344D+00     -0.224026D+00
   zy        -0.174072D-01     -0.257948D-02     -0.287006D-02
   zz         0.125161D+02      0.185470D+01      0.206363D+01

 First dipole hyperpolarizability, Beta (dipole orientation).
 ||, _|_  parallel and perpendicular components, (z) with respect to z axis,
 vector components x,y,z.  Values do not include the 1/n! factor of 1/2.
 (esu units = statvolt**-1 cm**4 , SI units = C**3 m**3 J**-2)
 Beta(0;0,0):
               (au)            (10**-30 esu)      (10**-50 SI)
   || (z)     0.122905D+02      0.106180D+00      0.394078D-01
   _|_(z)     0.409683D+01      0.353934D-01      0.131359D-01
   x          0.576978D+02      0.498464D+00      0.185000D+00
   y          0.196806D+02      0.170025D+00      0.631030D-01
   z          0.614525D+02      0.530902D+00      0.197039D+00
   ||         0.173122D+02      0.149564D+00      0.555090D-01
   xxx        0.214629D+02      0.185422D+00      0.688177D-01
   xxy        0.515929D+01      0.445723D-01      0.165426D-01
   yxy       -0.220499D+01     -0.190494D-01     -0.706998D-02
   yyy       -0.106021D+01     -0.915935D-02     -0.339940D-02
   xxz        0.138665D+02      0.119796D+00      0.444610D-01
   yxz       -0.321179D+01     -0.277473D-01     -0.102981D-01
   yyz       -0.632065D+00     -0.546055D-02     -0.202663D-02
   zxz       -0.252684D-01     -0.218299D-03     -0.810196D-04
   zyz        0.246110D+01      0.212620D-01      0.789117D-02
   zzz        0.724973D+01      0.626320D-01      0.232453D-01

 ----------------------------------------------------------------------
 Unable to Open any file for archive entry.
 1\1\GINC-C206-1\Freq\UHF\STO-3G\C2H5O1(2)\USCQFAFR\03-May-2022\0\\#N G
 eom=AllCheck Guess=TCheck SCRF=Check GenChk UHF/STO-3G Freq\\--\\0,2\C
 ,-0.0020221888,-0.0188481839,-0.0368489486\C,-0.0785226229,-0.14756637
 44,1.4768826283\H,1.0339705288,0.069431817,-0.351279874\H,-0.434854054
 5,-0.885036856,-0.5354956511\O,-1.3566965838,0.0519196611,2.0086961161
 \H,0.5368692413,-0.9157661776,1.9500154707\H,-1.2505173162,-0.06329445
 72,2.9856671396\H,-0.5415561749,0.8644645761,-0.3664658895\\Version=ES
 64L-G16RevC.01\State=2-A\HF=-151.5045666\S2=0.759581\S2-1=0.\S2A=0.750
 069\RMSD=9.424e-10\RMSF=6.656e-06\ZeroPoint=0.0776912\Thermal=0.082003
 7\ETot=-151.422563\HTot=-151.4216188\GTot=-151.4530289\Dipole=0.346025
 9,-0.1917124,0.3066029\DipoleDeriv=-0.081955,0.0465265,-0.0308603,0.05
 8715,-0.0342069,-0.0496581,0.0078852,0.0124324,-0.0180797,0.4182586,-0
 .0827808,-0.3289197,-0.1403855,0.1365745,-0.0563273,-0.2458293,-0.1049
 818,0.4530822,-0.0173131,-0.0058727,0.0139213,-0.0069787,0.0464347,0.0
 042,0.0332071,-0.0000979,0.0007932,0.0325326,-0.0228627,-0.0037447,-0.
 0297878,-0.0080196,-0.0113736,0.0039976,-0.0189964,-0.0360806,-0.54802
 87,0.012189,0.3323452,-0.0189649,-0.4071114,-0.0001608,0.2344791,-0.02
 14334,-0.1956516,-0.0157695,0.0042096,0.0875158,0.0718543,-0.0195542,0
 .0626356,0.0306639,0.0508474,-0.0966774,0.1738514,0.0260319,-0.0672513
 ,0.0366333,0.2806152,0.0395509,-0.0500058,0.0504129,-0.1149183,0.03842
 37,0.0225592,-0.0030063,0.0289144,0.0052678,0.0111332,-0.0143978,0.031
 8167,0.0075321\Polar=12.4987844,-1.6222777,8.5409103,-2.5600389,-1.044
 8113,16.2745777\PolarDeriv=-2.3641674,-0.5708173,1.4009286,2.217175,0.
 4525287,0.1765016,-0.7341258,1.1462384,-0.4939374,0.5333273,2.5738236,
 0.9371228,1.0258809,-0.1918315,0.950703,0.2966855,0.879363,-0.4881702,
 1.2965991,0.875,-0.7510375,-0.4088018,0.323691,0.9479798,1.3744228,-0.
 1853639,1.9007422,0.2022142,-0.7763277,0.6906774,0.1702641,0.5285518,-
 0.595189,0.0165284,0.5603667,1.5790689,5.2313552,0.4014972,-0.1543206,
 -1.6990862,-0.122781,0.5878291,0.1931331,1.8533288,0.5029431,-0.077167
 3,-1.2274197,-0.149666,-0.5429714,-0.0296842,-0.2629294,2.3531321,0.07
 32172,-1.6191109,-1.1648429,-1.5915527,-0.4513741,-1.6759381,-0.229365
 7,-0.4941514,-0.0203714,-1.0958359,-3.585214,-0.1814396,-2.0561441,-1.
 0643363,-0.3821461,-0.0028866,-0.3468823,-0.778549,-2.0731447,-3.07038
 1,-2.8321273,0.9139208,-0.117986,-0.6095768,-0.5727926,-1.044225,0.270
 3814,-1.6227923,0.4747117,-0.1818391,-0.3267848,0.2088277,-0.9554613,-
 0.0573647,0.1293011,-0.1602727,0.3713425,-4.5652245,2.4077317,-1.81208
 35,0.6143029,1.2753729,-0.0792276,-0.0517653,-1.1017943,1.6862073,-2.7
 435667,-0.6454227,1.2684231,-0.6202605,0.2241167,-0.3012518,0.5153722,
 1.4731577,-1.7134999,1.9044467,-0.9593289,-0.1225849,-0.032481,2.14637
 96,0.0420125,0.3224839,-0.2016383,-0.4210061,-0.1024975,0.2370521,2.15
 22977,-0.4039894,0.740711,0.0015878,0.0723122,-2.012444,-0.0615163,8.0
 325431,-1.6152195,1.9066204,-0.5080324,-1.2455246,0.1859346,-0.4446526
 ,0.2199925,-1.3607762,4.0468187,0.113275,-1.6078682,0.4016243,-0.28039
 4,0.0528792,-0.4626878,-1.188238,1.9638716,-1.7731721\HyperPolar=24.21
 63599,0.0849648,-0.6912456,0.6283513,-10.7821383,-2.4168003,-1.6905265
 ,5.2462171,0.5620278,14.2373132\Quadrupole=-1.4415436,-0.5084096,1.949
 9531,0.0249973,-0.1492193,-0.3613951\PG=C01 [X(C2H5O1)]\NImag=0\\0.846
 96707,-0.02681716,0.80724477,-0.00297918,-0.00143526,0.71041271,-0.115
 76403,0.01543347,0.01546746,0.70146131,0.02357630,-0.08669679,0.040304
 08,-0.24826013,0.35245877,-0.00663681,0.01177841,-0.32964174,-0.071482
 37,-0.16772548,0.70083143,-0.42843068,-0.02947945,0.10245486,0.0044327
 0,0.00142445,-0.00220263,0.44397066,-0.02960056,-0.08134004,0.00923744
 ,-0.00279222,-0.00003407,0.00010615,0.03199544,0.07086819,0.10721421,0
 .01192358,-0.10354930,0.04450380,-0.00197671,-0.00765795,-0.11171957,-
 0.00874829,0.10548544,-0.13732591,-0.11706999,-0.06482812,0.00372916,0
 .00412770,0.00189930,-0.00990680,-0.03644943,-0.02240881,0.13160481,-0
 .11746357,-0.31426833,-0.12927323,0.00453445,0.00896266,0.00356589,0.0
 0543352,0.00129829,-0.00037998,0.12813941,0.32420305,-0.07156701,-0.14
 277734,-0.14667591,-0.01952379,-0.03144556,-0.02596928,0.00673259,0.01
 375688,0.00793075,0.07235048,0.14409196,0.15259094,0.01140288,0.003483
 67,0.00151111,-0.41156936,0.08120164,0.07705423,0.00077139,0.00030069,
 -0.00314596,-0.00017656,-0.00056790,0.00362122,0.49119121,-0.00520985,
 0.00222421,-0.00228852,0.04905152,-0.03903826,0.02032051,-0.00032644,0
 .00036270,0.00228023,-0.00021775,0.00006504,0.00102229,-0.10159931,0.0
 4985190,0.04555502,-0.00647247,-0.01561515,0.16704148,-0.00651192,-0.1
 6395146,-0.00193506,0.00025912,-0.00773529,0.00004267,0.00045586,0.000
 96490,-0.07427042,-0.07118894,0.79527280,0.00660553,-0.00212020,0.0027
 8267,-0.17609104,0.14996596,-0.07385846,0.00064633,-0.00012244,-0.0008
 8008,-0.00000162,-0.00021510,0.00141384,-0.02207069,0.03069389,-0.0129
 2460,0.18748114,-0.00240513,0.00498441,-0.00830788,0.17886440,-0.23677
 419,0.14449588,-0.00007311,-0.00004466,0.00024062,0.00010854,0.0003286
 7,0.00126880,0.00028302,0.00283057,-0.00135110,-0.17684512,0.22770604,
 -0.02015037,0.03058806,-0.00836920,-0.08251644,0.12143810,-0.14221875,
 -0.00023051,-0.00065233,0.00228125,0.00024128,-0.00026957,0.00252526,0
 .01731933,-0.01231552,0.00753345,0.08394108,-0.13520298,0.14125491,-0.
 00921955,0.00137518,0.00145495,-0.00961555,-0.00675166,0.07417689,0.00
 048290,-0.00009099,0.00214628,-0.00004953,-0.00006730,-0.00029552,-0.0
 6965559,0.02780062,-0.12337142,0.00286234,-0.00035562,0.00004179,0.085
 25135,0.00213360,0.00180375,0.00020521,0.00457635,-0.00222550,-0.01154
 627,-0.00022129,0.00027408,-0.00044973,-0.00009393,-0.00006090,0.00018
 481,0.01702378,-0.01637028,0.08538180,-0.00146370,0.00053384,-0.002276
 82,-0.02196023,0.01596276,0.00532584,-0.00060585,0.00085592,-0.0260907
 1,0.00957772,-0.02000308,-0.00003837,-0.00009238,-0.00105823,-0.000120
 11,0.00003773,0.00052615,-0.02260620,0.06334845,-0.62000100,-0.0027276
 6,-0.00068454,0.00389358,0.04636489,-0.07131495,0.63485208,-0.17423531
 ,0.15519449,-0.05586376,0.00341680,-0.00528425,0.00104985,-0.01196651,
 0.03675951,-0.01570985,0.01212645,-0.01979351,0.00726819,0.00010671,-0
 .00019267,-0.00013767,0.00056802,0.00042303,0.00135384,-0.00005637,0.0
 0000543,-0.00010769,0.17004022,0.15578637,-0.33395199,0.09155814,-0.00
 140782,0.00334737,-0.00099508,-0.00875312,0.00861551,-0.00288973,0.021
 45545,-0.02052848,0.01389817,-0.00012558,0.00007411,-0.00057234,0.0001
 0671,0.00043532,-0.00130893,0.00005001,0.00008225,-0.00026617,-0.16711
 201,0.34192591,-0.05676170,0.09700087,-0.10741732,-0.02739943,0.036339
 78,-0.01138916,0.00693870,-0.01386660,0.00430334,0.01282330,-0.0182286
 6,0.00810719,0.00051669,-0.00117850,0.00353175,0.00225321,-0.00045880,
 -0.00690049,-0.00051785,-0.00018404,0.00093458,0.06214708,-0.09942405,
 0.10883012\\0.00000269,-0.00000203,0.00001048,0.00001035,0.00001294,0.
 00000255,-0.00001456,-0.00000078,0.00000512,-0.00000027,-0.00000271,-0
 .00000534,0.00000809,-0.00000319,0.00000522,-0.00000705,-0.00000208,0.
 00000040,-0.00000065,-0.00000288,-0.00001412,0.00000139,0.00000073,-0.
 00000431\\\@
 The archive entry for this job was punched.


 WE'RE IN THE POSITION OF A VISITOR FROM ANOTHER
 DIMENSION WHO COMES TO EARTH AND SEES A CHESS MATCH.
 ASSUMING HE KNOWS IT'S A GAME, HE'S GOT TWO PROBLEMS:
 FIRST, FIGURE OUT THE RULES, AND SECOND, FIGURE OUT HOW TO WIN.
 NINETY PERCENT OF SCIENCE (INCLUDING VIRTUALLY ALL OF CHEMISRY)
 IS IN THAT SECOND CATEGORY.  THEY'RE TRYING TO APPLY
 THE LAWS THAT ARE ALREADY KNOWN.

                     -- SHELDON GLASHOW, 1979
 Job cpu time:       0 days  0 hours  0 minutes  0.6 seconds.
 Elapsed time:       0 days  0 hours  0 minutes  0.6 seconds.
 File lengths (MBytes):  RWF=      6 Int=      0 D2E=      0 Chk=      1 Scr=      1
 Normal termination of Gaussian 16 at Tue May  3 16:47:28 2022.
