/mnt/lustre/scratch/nvme/SLURM/122918/uscqfafr.vWLUSxKFkO
GAUSS_MDEF=1904MB
GAUSS_RDEF=SCF=Direct
 Entering Gaussian System, Link 0=g16.exe
 Initial command:
 /opt/cesga/2020/software/Core/g16/c1/l1.exe "/mnt/lustre/scratch/nvme/SLURM/122918/uscqfafr.vWLUSxKFkO/Gau-3812895.inp" -scrdir="/mnt/lustre/scratch/nvme/SLURM/122918/uscqfafr.vWLUSxKFkO/"
 Entering Link 1 = /opt/cesga/2020/software/Core/g16/c1/l1.exe PID=   3812917.
  
 Copyright (c) 1988-2019, Gaussian, Inc.  All Rights Reserved.
  
 This is part of the Gaussian(R) 16 program.  It is based on
 the Gaussian(R) 09 system (copyright 2009, Gaussian, Inc.),
 the Gaussian(R) 03 system (copyright 2003, Gaussian, Inc.),
 the Gaussian(R) 98 system (copyright 1998, Gaussian, Inc.),
 the Gaussian(R) 94 system (copyright 1995, Gaussian, Inc.),
 the Gaussian 92(TM) system (copyright 1992, Gaussian, Inc.),
 the Gaussian 90(TM) system (copyright 1990, Gaussian, Inc.),
 the Gaussian 88(TM) system (copyright 1988, Gaussian, Inc.),
 the Gaussian 86(TM) system (copyright 1986, Carnegie Mellon
 University), and the Gaussian 82(TM) system (copyright 1983,
 Carnegie Mellon University). Gaussian is a federally registered
 trademark of Gaussian, Inc.
  
 This software contains proprietary and confidential information,
 including trade secrets, belonging to Gaussian, Inc.
  
 This software is provided under written license and may be
 used, copied, transmitted, or stored only in accord with that
 written license.
  
 The following legend is applicable only to US Government
 contracts under FAR:
  
                    RESTRICTED RIGHTS LEGEND
  
 Use, reproduction and disclosure by the US Government is
 subject to restrictions as set forth in subparagraphs (a)
 and (c) of the Commercial Computer Software - Restricted
 Rights clause in FAR 52.227-19.
  
 Gaussian, Inc.
 340 Quinnipiac St., Bldg. 40, Wallingford CT 06492
  
  
 ---------------------------------------------------------------
 Warning -- This program may not be used in any manner that
 competes with the business of Gaussian, Inc. or will provide
 assistance to any competitor of Gaussian, Inc.  The licensee
 of this program is prohibited from giving any competitor of
 Gaussian, Inc. access to this program.  By using this program,
 the user acknowledges that Gaussian, Inc. is engaged in the
 business of creating and licensing software in the field of
 computational chemistry and represents and warrants to the
 licensee that it is not a competitor of Gaussian, Inc. and that
 it will not use this program in any manner prohibited above.
 ---------------------------------------------------------------
  

 Cite this work as:
 Gaussian 16, Revision C.01,
 M. J. Frisch, G. W. Trucks, H. B. Schlegel, G. E. Scuseria, 
 M. A. Robb, J. R. Cheeseman, G. Scalmani, V. Barone, 
 G. A. Petersson, H. Nakatsuji, X. Li, M. Caricato, A. V. Marenich, 
 J. Bloino, B. G. Janesko, R. Gomperts, B. Mennucci, H. P. Hratchian, 
 J. V. Ortiz, A. F. Izmaylov, J. L. Sonnenberg, D. Williams-Young, 
 F. Ding, F. Lipparini, F. Egidi, J. Goings, B. Peng, A. Petrone, 
 T. Henderson, D. Ranasinghe, V. G. Zakrzewski, J. Gao, N. Rega, 
 G. Zheng, W. Liang, M. Hada, M. Ehara, K. Toyota, R. Fukuda, 
 J. Hasegawa, M. Ishida, T. Nakajima, Y. Honda, O. Kitao, H. Nakai, 
 T. Vreven, K. Throssell, J. A. Montgomery, Jr., J. E. Peralta, 
 F. Ogliaro, M. J. Bearpark, J. J. Heyd, E. N. Brothers, K. N. Kudin, 
 V. N. Staroverov, T. A. Keith, R. Kobayashi, J. Normand, 
 K. Raghavachari, A. P. Rendell, J. C. Burant, S. S. Iyengar, 
 J. Tomasi, M. Cossi, J. M. Millam, M. Klene, C. Adamo, R. Cammi, 
 J. W. Ochterski, R. L. Martin, K. Morokuma, O. Farkas, 
 J. B. Foresman, and D. J. Fox, Gaussian, Inc., Wallingford CT, 2019.
 
 ******************************************
 Gaussian 16:  ES64L-G16RevC.01  3-Jul-2019
                 3-May-2022 
 ******************************************
 Default route: SCF=Direct
 --------------------
 # hf/sto-3g opt freq
 --------------------
 1/18=20,19=15,38=1/1,3;
 2/9=110,12=2,17=6,18=5,40=1/2;
 3/6=3,11=9,25=1,30=1,71=1/1,2,3;
 4//1;
 5/5=2,38=5/2;
 6/7=2,8=2,9=2,10=2,28=1/1;
 7//1,2,3,16;
 1/18=20,19=15/3(2);
 2/9=110/2;
 99//99;
 2/9=110/2;
 3/6=3,11=9,25=1,30=1,71=1/1,2,3;
 4/5=5,16=3,69=1/1;
 5/5=2,38=5/2;
 7//1,2,3,16;
 1/18=20,19=15/3(-5);
 2/9=110/2;
 6/7=2,8=2,9=2,10=2,19=2,28=1/1;
 99/9=1/99;
 --
 --
 --
 Symbolic Z-matrix:
 Charge =  0 Multiplicity = 2
 c
 c                    1    cc2
 h                    1    hc3      2    hcc3
 h                    1    hc4      2    hcc4     3    dih4     0
 o                    2    oc5      1    occ5     3    dih5     0
 h                    2    hc6      1    hcc6     5    dih6     0
 h                    2    hc7      1    hcc7     5    dih7     0
 h                    5    ho8      2    hoc8     1    dih8     0
       Variables:
  cc2                   1.5                      
  hc3                   1.089                    
  hcc3                109.471                    
  hc4                   1.089                    
  hcc4                109.471                    
  dih4                120.                       
  oc5                   1.38                     
  occ5                109.471                    
  dih5                180.                       
  hc6                   1.07                     
  hcc6                109.471                    
  dih6                120.                       
  hc7                   1.07                     
  hcc7                109.471                    
  dih7                240.                       
  ho8                   0.95                     
  hoc8                109.471                    
  dih8                170.                       
 
     6 tetrahedral angles replaced.

 GradGradGradGradGradGradGradGradGradGradGradGradGradGradGradGradGradGrad
 Berny optimization.
 Initialization pass.
                           ----------------------------
                           !    Initial Parameters    !
                           ! (Angstroms and Degrees)  !
 --------------------------                            --------------------------
 ! Name  Definition              Value          Derivative Info.                !
 --------------------------------------------------------------------------------
 ! R1    R(1,2)                  1.5            estimate D2E/DX2                !
 ! R2    R(1,3)                  1.089          estimate D2E/DX2                !
 ! R3    R(1,4)                  1.089          estimate D2E/DX2                !
 ! R4    R(2,5)                  1.38           estimate D2E/DX2                !
 ! R5    R(2,6)                  1.07           estimate D2E/DX2                !
 ! R6    R(2,7)                  1.07           estimate D2E/DX2                !
 ! R7    R(5,8)                  0.95           estimate D2E/DX2                !
 ! A1    A(2,1,3)              109.4712         estimate D2E/DX2                !
 ! A2    A(2,1,4)              109.4712         estimate D2E/DX2                !
 ! A3    A(3,1,4)              109.4712         estimate D2E/DX2                !
 ! A4    A(1,2,5)              109.4712         estimate D2E/DX2                !
 ! A5    A(1,2,6)              109.4712         estimate D2E/DX2                !
 ! A6    A(1,2,7)              109.4712         estimate D2E/DX2                !
 ! A7    A(5,2,6)              109.4712         estimate D2E/DX2                !
 ! A8    A(5,2,7)              109.4712         estimate D2E/DX2                !
 ! A9    A(6,2,7)              109.4712         estimate D2E/DX2                !
 ! A10   A(2,5,8)              109.4712         estimate D2E/DX2                !
 ! D1    D(3,1,2,5)            180.0            estimate D2E/DX2                !
 ! D2    D(3,1,2,6)            -60.0            estimate D2E/DX2                !
 ! D3    D(3,1,2,7)             60.0            estimate D2E/DX2                !
 ! D4    D(4,1,2,5)            -60.0            estimate D2E/DX2                !
 ! D5    D(4,1,2,6)             60.0            estimate D2E/DX2                !
 ! D6    D(4,1,2,7)            180.0            estimate D2E/DX2                !
 ! D7    D(1,2,5,8)            170.0            estimate D2E/DX2                !
 ! D8    D(6,2,5,8)             50.0            estimate D2E/DX2                !
 ! D9    D(7,2,5,8)            -70.0            estimate D2E/DX2                !
 --------------------------------------------------------------------------------
 Trust Radius=3.00D-01 FncErr=1.00D-07 GrdErr=1.00D-07 EigMax=2.50D+02 EigMin=1.00D-04
 Number of steps in this run=     36 maximum allowed number of steps=    100.
 GradGradGradGradGradGradGradGradGradGradGradGradGradGradGradGradGradGrad

                          Input orientation:                          
 ---------------------------------------------------------------------
 Center     Atomic      Atomic             Coordinates (Angstroms)
 Number     Number       Type             X           Y           Z
 ---------------------------------------------------------------------
      1          6           0        0.000000    0.000000    0.000000
      2          6           0        0.000000    0.000000    1.500000
      3          1           0        1.026719    0.000000   -0.363000
      4          1           0       -0.513360   -0.889165   -0.363000
      5          8           0       -1.301076    0.000000    1.960000
      6          1           0        0.504403   -0.873651    1.856667
      7          1           0        0.504403    0.873651    1.856667
      8          1           0       -1.305612   -0.155531    2.897171
 ---------------------------------------------------------------------
                    Distance matrix (angstroms):
                    1          2          3          4          5
     1  C    0.000000
     2  C    1.500000   0.000000
     3  H    1.089000   2.127186   0.000000
     4  H    1.089000   2.127186   1.778330   0.000000
     5  O    2.352531   1.380000   3.288611   2.609107   0.000000
     6  H    2.113031   1.070000   2.441926   2.441926   2.008407
     7  H    2.113031   1.070000   2.441926   3.011691   2.008407
     8  H    3.181574   1.918567   4.011568   3.434326   0.950000
                    6          7          8
     6  H    0.000000
     7  H    1.747303   0.000000
     8  H    2.207827   2.327664   0.000000
 Stoichiometry    C2H5O(2)
 Framework group  C1[X(C2H5O)]
 Deg. of freedom    18
 Full point group                 C1      NOp   1
 Largest Abelian subgroup         C1      NOp   1
 Largest concise Abelian subgroup C1      NOp   1
                         Standard orientation:                         
 ---------------------------------------------------------------------
 Center     Atomic      Atomic             Coordinates (Angstroms)
 Number     Number       Type             X           Y           Z
 ---------------------------------------------------------------------
      1          6           0        1.249427   -0.288351   -0.135787
      2          6           0       -0.018221    0.492214    0.048024
      3          1           0        2.104112    0.379885   -0.041466
      4          1           0        1.310650   -1.065547    0.624568
      5          8           0       -1.101292   -0.354586   -0.071501
      6          1           0       -0.022549    0.941958    1.018906
      7          1           0       -0.078375    1.255850   -0.699065
      8          1           0       -1.890745    0.101369    0.195647
 ---------------------------------------------------------------------
 Rotational constants (GHZ):          42.4790100          10.0773110           8.7766667
 Standard basis: STO-3G (5D, 7F)
 There are    20 symmetry adapted cartesian basis functions of A   symmetry.
 There are    20 symmetry adapted basis functions of A   symmetry.
    20 basis functions,    60 primitive gaussians,    20 cartesian basis functions
    13 alpha electrons       12 beta electrons
       nuclear repulsion energy        76.0737251762 Hartrees.
 NAtoms=    8 NActive=    8 NUniq=    8 SFac= 1.00D+00 NAtFMM=   60 NAOKFM=F Big=F
 Integral buffers will be    131072 words long.
 Raffenetti 2 integral format.
 Two-electron integral symmetry is turned on.
 One-electron integrals computed using PRISM.
 NBasis=    20 RedAO= T EigKep=  2.09D-01  NBF=    20
 NBsUse=    20 1.00D-06 EigRej= -1.00D+00 NBFU=    20
 ExpMin= 1.69D-01 ExpMax= 1.31D+02 ExpMxC= 1.31D+02 IAcc=3 IRadAn=         5 AccDes= 0.00D+00
 Harris functional with IExCor=  205 and IRadAn=       5 diagonalized for initial guess.
 HarFok:  IExCor=  205 AccDes= 0.00D+00 IRadAn=         5 IDoV= 1 UseB2=F ITyADJ=14
 ICtDFT=  3500011 ScaDFX=  1.000000  1.000000  1.000000  1.000000
 FoFCou: FMM=F IPFlag=           0 FMFlag=      100000 FMFlg1=           0
         NFxFlg=           0 DoJE=T BraDBF=F KetDBF=T FulRan=T
         wScrn=  0.000000 ICntrl=       500 IOpCl=  0 I1Cent=   200000004 NGrid=           0
         NMat0=    1 NMatS0=      1 NMatT0=    0 NMatD0=    1 NMtDS0=    0 NMtDT0=    0
 Petite list used in FoFCou.
 Initial guess <Sx>= 0.0000 <Sy>= 0.0000 <Sz>= 0.5000 <S**2>= 0.7500 S= 0.5000
 Keep R1 and R2 ints in memory in canonical form, NReq=854674.
 Requested convergence on RMS density matrix=1.00D-08 within 128 cycles.
 Requested convergence on MAX density matrix=1.00D-06.
 Requested convergence on             energy=1.00D-06.
 No special actions if energy rises.
 SCF Done:  E(UHF) =  -151.470804580     A.U. after   15 cycles
            NFock= 15  Conv=0.42D-08     -V/T= 2.0059
 <Sx>= 0.0000 <Sy>= 0.0000 <Sz>= 0.5000 <S**2>= 0.7588 S= 0.5044
 <L.S>=  0.00000000000    
 Annihilation of the first spin contaminant:
 S**2 before annihilation     0.7588,   after     0.7501

 **********************************************************************

            Population analysis using the SCF Density.

 **********************************************************************

 Orbital symmetries:
 Alpha Orbitals:
       Occupied  (A) (A) (A) (A) (A) (A) (A) (A) (A) (A) (A) (A)
                 (A)
       Virtual   (A) (A) (A) (A) (A) (A) (A)
 Beta  Orbitals:
       Occupied  (A) (A) (A) (A) (A) (A) (A) (A) (A) (A) (A) (A)
       Virtual   (A) (A) (A) (A) (A) (A) (A) (A)
 The electronic state is 2-A.
 Alpha  occ. eigenvalues --  -20.24520 -11.09271 -11.02944  -1.30055  -0.98058
 Alpha  occ. eigenvalues --   -0.79302  -0.63919  -0.61751  -0.51323  -0.49204
 Alpha  occ. eigenvalues --   -0.41910  -0.37386  -0.33933
 Alpha virt. eigenvalues --    0.57977   0.67078   0.67926   0.72467   0.77520
 Alpha virt. eigenvalues --    0.77992   0.79971
  Beta  occ. eigenvalues --  -20.24494 -11.09543 -10.99769  -1.29917  -0.93637
  Beta  occ. eigenvalues --   -0.74819  -0.63282  -0.60151  -0.49647  -0.47531
  Beta  occ. eigenvalues --   -0.39907  -0.34867
  Beta virt. eigenvalues --    0.29238   0.58566   0.68825   0.71278   0.73955
  Beta virt. eigenvalues --    0.79499   0.80102   0.81978
          Condensed to atoms (all electrons):
               1          2          3          4          5          6
     1  C    5.029359   0.361803   0.375364   0.375796  -0.022063  -0.022627
     2  C    0.361803   4.701356  -0.024566  -0.026640   0.277098   0.379208
     3  H    0.375364  -0.024566   0.630171  -0.025049   0.000706  -0.001403
     4  H    0.375796  -0.026640  -0.025049   0.623577  -0.000723  -0.002099
     5  O   -0.022063   0.277098   0.000706  -0.000723   7.843869  -0.018939
     6  H   -0.022627   0.379208  -0.001403  -0.002099  -0.018939   0.643557
     7  H   -0.026810   0.380041  -0.002344   0.002116  -0.020961  -0.027810
     8  H    0.003161  -0.045223  -0.000102   0.000023   0.265239  -0.005419
               7          8
     1  C   -0.026810   0.003161
     2  C    0.380041  -0.045223
     3  H   -0.002344  -0.000102
     4  H    0.002116   0.000023
     5  O   -0.020961   0.265239
     6  H   -0.027810  -0.005419
     7  H    0.644802  -0.001980
     8  H   -0.001980   0.591710
          Atomic-Atomic Spin Densities.
               1          2          3          4          5          6
     1  C    1.221000  -0.018727  -0.011612  -0.011906  -0.001444  -0.008084
     2  C   -0.018727  -0.100874   0.003358   0.003280   0.004458   0.001803
     3  H   -0.011612   0.003358  -0.059784   0.003817   0.000019  -0.001009
     4  H   -0.011906   0.003280   0.003817  -0.056371   0.000185  -0.001107
     5  O   -0.001444   0.004458   0.000019   0.000185   0.009363  -0.001673
     6  H   -0.008084   0.001803  -0.001009  -0.001107  -0.001673   0.055679
     7  H   -0.003953   0.004154   0.000528   0.000113   0.000230  -0.003027
     8  H    0.000102   0.000439   0.000000  -0.000009   0.000419   0.000166
               7          8
     1  C   -0.003953   0.000102
     2  C    0.004154   0.000439
     3  H    0.000528   0.000000
     4  H    0.000113  -0.000009
     5  O    0.000230   0.000419
     6  H   -0.003027   0.000166
     7  H    0.013735   0.000050
     8  H    0.000050  -0.003887
 Mulliken charges and spin densities:
               1          2
     1  C   -0.073984   1.165374
     2  C   -0.003077  -0.102109
     3  H    0.047221  -0.064683
     4  H    0.052998  -0.061999
     5  O   -0.324226   0.011557
     6  H    0.055532   0.042748
     7  H    0.052946   0.011831
     8  H    0.192590  -0.002720
 Sum of Mulliken charges =   0.00000   1.00000
 Mulliken charges and spin densities with hydrogens summed into heavy atoms:
               1          2
     1  C    0.026235   1.038692
     2  C    0.105401  -0.047529
     5  O   -0.131635   0.008837
 Electronic spatial extent (au):  <R**2>=            173.1005
 Charge=              0.0000 electrons
 Dipole moment (field-independent basis, Debye):
    X=             -0.1374    Y=              1.4824    Z=              0.7811  Tot=              1.6812
 Quadrupole moment (field-independent basis, Debye-Ang):
   XX=            -15.9701   YY=            -18.3129   ZZ=            -17.7844
   XY=             -1.3389   XZ=             -0.4506   YZ=             -0.2342
 Traceless Quadrupole moment (field-independent basis, Debye-Ang):
   XX=              1.3857   YY=             -0.9571   ZZ=             -0.4286
   XY=             -1.3389   XZ=             -0.4506   YZ=             -0.2342
 Octapole moment (field-independent basis, Debye-Ang**2):
  XXX=            -12.4763  YYY=             -1.5612  ZZZ=              0.2230  XYY=             -1.6471
  XXY=              1.9266  XXZ=              1.7538  XZZ=             -2.3097  YZZ=             -0.3689
  YYZ=              0.1469  XYZ=             -0.2015
 Hexadecapole moment (field-independent basis, Debye-Ang**3):
 XXXX=           -119.8536 YYYY=            -43.6622 ZZZZ=            -22.1534 XXXY=              1.7971
 XXXZ=             -0.9821 YYYX=              1.7944 YYYZ=             -0.5931 ZZZX=              0.4450
 ZZZY=              0.1618 XXYY=            -29.7933 XXZZ=            -26.4269 YYZZ=            -10.2549
 XXYZ=             -0.2183 YYXZ=              0.5137 ZZXY=              0.2595
 N-N= 7.607372517617D+01 E-N=-5.085644719678D+02  KE= 1.505868270484D+02
                          Isotropic Fermi Contact Couplings
        Atom                 a.u.       MegaHertz       Gauss      10(-4) cm-1
     1  C(13)              0.41024     461.18677     164.56291     153.83535
     2  C(13)             -0.04208     -47.30710     -16.88035     -15.77995
     3  H(1)              -0.02141     -95.69696     -34.14706     -31.92107
     4  H(1)              -0.01999     -89.34571     -31.88077     -29.80252
     5  O(17)             -0.00271       1.63988       0.58515       0.54700
     6  H(1)               0.02109      94.27362      33.63917      31.44630
     7  H(1)               0.00533      23.81201       8.49672       7.94283
     8  H(1)              -0.00144      -6.42577      -2.29287      -2.14340
 --------------------------------------------------------
       Center         ----  Spin Dipole Couplings  ----
                      3XX-RR        3YY-RR        3ZZ-RR
 --------------------------------------------------------
     1   Atom       -0.489538     -0.235649      0.725186
     2   Atom        0.016910     -0.004506     -0.012404
     3   Atom        0.039851     -0.000812     -0.039039
     4   Atom       -0.078512      0.033957      0.044555
     5   Atom        0.022405      0.001950     -0.024354
     6   Atom        0.007084      0.002068     -0.009152
     7   Atom        0.005280      0.007691     -0.012971
     8   Atom        0.008132     -0.003740     -0.004392
 --------------------------------------------------------
                        XY            XZ            YZ
 --------------------------------------------------------
     1   Atom       -0.001011     -0.006576      0.553266
     2   Atom       -0.011956     -0.016210      0.001713
     3   Atom        0.091337      0.008070      0.024285
     4   Atom       -0.007510      0.006883     -0.075872
     5   Atom        0.017379     -0.000657      0.011005
     6   Atom       -0.011165     -0.009204      0.004422
     7   Atom       -0.019378      0.004641      0.001716
     8   Atom       -0.003204     -0.002327      0.001349
 --------------------------------------------------------


 ---------------------------------------------------------------------------------
              Anisotropic Spin Dipole Couplings in Principal Axis System
 ---------------------------------------------------------------------------------

       Atom             a.u.   MegaHertz   Gauss  10(-4) cm-1        Axes

              Baa    -0.4907   -65.853   -23.498   -21.966  0.8378 -0.4952  0.2299
     1 C(13)  Bbb    -0.4868   -65.322   -23.309   -21.789  0.5459  0.7633 -0.3455
              Bcc     0.9775   131.176    46.807    43.756 -0.0044  0.4149  0.9098
 
              Baa    -0.0204    -2.742    -0.979    -0.915  0.4512  0.2463  0.8578
     2 C(13)  Bbb    -0.0078    -1.049    -0.374    -0.350  0.1996  0.9090 -0.3660
              Bcc     0.0283     3.792     1.353     1.265  0.8698 -0.3363 -0.3609
 
              Baa    -0.0792   -42.242   -15.073   -14.091 -0.5565  0.7557 -0.3454
     3 H(1)   Bbb    -0.0369   -19.697    -7.028    -6.570 -0.3211  0.1878  0.9282
              Bcc     0.1161    61.939    22.101    20.661  0.7663  0.6274  0.1381
 
              Baa    -0.0791   -42.182   -15.051   -14.070  0.9985  0.0494 -0.0253
     4 H(1)   Bbb    -0.0368   -19.627    -7.003    -6.547 -0.0188  0.7303  0.6828
              Bcc     0.1158    61.809    22.055    20.617  0.0522 -0.6813  0.7301
 
              Baa    -0.0293     2.121     0.757     0.708  0.1457 -0.3995  0.9051
     5 O(17)  Bbb    -0.0035     0.250     0.089     0.084 -0.4999  0.7597  0.4159
              Bcc     0.0328    -2.372    -0.846    -0.791  0.8537  0.5130  0.0890
 
              Baa    -0.0133    -7.117    -2.540    -2.374  0.4367  0.0588  0.8977
     6 H(1)   Bbb    -0.0062    -3.286    -1.173    -1.096  0.4897  0.8215 -0.2920
              Bcc     0.0195    10.403     3.712     3.470  0.7547 -0.5671 -0.3300
 
              Baa    -0.0176    -9.364    -3.341    -3.124 -0.5331 -0.4576  0.7116
     7 H(1)   Bbb    -0.0084    -4.507    -1.608    -1.503  0.4921  0.5164  0.7008
              Bcc     0.0260    13.871     4.950     4.627 -0.6882  0.7238 -0.0501
 
              Baa    -0.0055    -2.912    -1.039    -0.971 -0.0192 -0.6396  0.7684
     8 H(1)   Bbb    -0.0040    -2.118    -0.756    -0.707  0.3102  0.7268  0.6128
              Bcc     0.0094     5.030     1.795     1.678  0.9505 -0.2502 -0.1844
 

 ---------------------------------------------------------------------------------

 Calling FoFJK, ICntrl=      2127 FMM=F ISym2X=0 I1Cent= 0 IOpClX= 1 NMat=1 NMatS=1 NMatT=0.
 ***** Axes restored to original set *****
 -------------------------------------------------------------------
 Center     Atomic                   Forces (Hartrees/Bohr)
 Number     Number              X              Y              Z
 -------------------------------------------------------------------
      1        6           0.021329376   -0.037525944   -0.009860037
      2        6           0.008875830    0.015764585    0.004788475
      3        1          -0.003317943    0.012760392   -0.009359342
      4        1          -0.010182290    0.010371239   -0.010455035
      5        8          -0.071886408    0.007648966   -0.039957051
      6        1           0.022541865   -0.019312924    0.005347385
      7        1           0.021706530    0.017667972    0.010155923
      8        1           0.010933040   -0.007374286    0.049339683
 -------------------------------------------------------------------
 Cartesian Forces:  Max     0.071886408 RMS     0.024255421

 GradGradGradGradGradGradGradGradGradGradGradGradGradGradGradGradGradGrad
 Berny optimization.
 FormGI is forming the generalized inverse of G from B-inverse, IUseBI=4.
 Internal  Forces:  Max     0.060594930 RMS     0.020224635
 Search for a local minimum.
 Step number   1 out of a maximum of   36
 All quantities printed in internal units (Hartrees-Bohrs-Radians)
 Mixed Optimization -- RFO/linear search
 Second derivative matrix not updated -- first step.
 ITU=  0
     Eigenvalues ---    0.00766   0.01956   0.04248   0.06606   0.07553
     Eigenvalues ---    0.11551   0.13971   0.16000   0.16000   0.16000
     Eigenvalues ---    0.22121   0.32377   0.34928   0.34928   0.37230
     Eigenvalues ---    0.37230   0.49102   0.57681
 RFO step:  Lambda=-3.42915490D-02 EMin= 7.65947526D-03
 Linear search not attempted -- first point.
 Maximum step size (   0.300) exceeded in Quadratic search.
    -- Step size scaled by   0.941
 Iteration  1 RMS(Cart)=  0.08403662 RMS(Int)=  0.00953694
 Iteration  2 RMS(Cart)=  0.00643183 RMS(Int)=  0.00718707
 Iteration  3 RMS(Cart)=  0.00005331 RMS(Int)=  0.00718690
 Iteration  4 RMS(Cart)=  0.00000117 RMS(Int)=  0.00718690
 Iteration  5 RMS(Cart)=  0.00000003 RMS(Int)=  0.00718690
 Variable       Old X    -DE/DX   Delta X   Delta X   Delta X     New X
                                 (Linear)    (Quad)   (Total)
    R1        2.83459   0.02967   0.00000   0.07800   0.07800   2.91259
    R2        2.05791  -0.00001   0.00000  -0.00002  -0.00002   2.05789
    R3        2.05791  -0.00018   0.00000  -0.00045  -0.00045   2.05746
    R4        2.60782   0.06059   0.00000   0.10857   0.10857   2.71639
    R5        2.02201   0.02818   0.00000   0.06523   0.06523   2.08723
    R6        2.02201   0.02804   0.00000   0.06492   0.06492   2.08692
    R7        1.79524   0.04983   0.00000   0.07674   0.07674   1.87198
    A1        1.91063   0.01849   0.00000   0.12878   0.11129   2.02192
    A2        1.91063   0.02101   0.00000   0.14098   0.12358   2.03422
    A3        1.91063  -0.00389   0.00000   0.05957   0.03544   1.94607
    A4        1.91063  -0.00314   0.00000  -0.00373  -0.00372   1.90691
    A5        1.91063  -0.00533   0.00000  -0.03805  -0.03827   1.87236
    A6        1.91063   0.00078   0.00000   0.00070   0.00021   1.91084
    A7        1.91063   0.00736   0.00000   0.04433   0.04423   1.95487
    A8        1.91063   0.00577   0.00000   0.04349   0.04322   1.95385
    A9        1.91063  -0.00544   0.00000  -0.04675  -0.04794   1.86270
   A10        1.91063  -0.01994   0.00000  -0.09658  -0.09658   1.81405
    D1        3.14159  -0.00871   0.00000  -0.10249  -0.10747   3.03413
    D2       -1.04720  -0.00489   0.00000  -0.07378  -0.07913  -1.12633
    D3        1.04720  -0.01433   0.00000  -0.15390  -0.15854   0.88866
    D4       -1.04720   0.01071   0.00000   0.13566   0.14067  -0.90653
    D5        1.04720   0.01454   0.00000   0.16438   0.16900   1.21620
    D6        3.14159   0.00509   0.00000   0.08425   0.08959  -3.05200
    D7        2.96706  -0.00135   0.00000  -0.00136  -0.00157   2.96549
    D8        0.87266   0.00259   0.00000   0.02037   0.02076   0.89342
    D9       -1.22173   0.00121   0.00000   0.02384   0.02366  -1.19808
         Item               Value     Threshold  Converged?
 Maximum Force            0.060595     0.000450     NO 
 RMS     Force            0.020225     0.000300     NO 
 Maximum Displacement     0.205303     0.001800     NO 
 RMS     Displacement     0.080658     0.001200     NO 
 Predicted change in Energy=-2.075794D-02
 GradGradGradGradGradGradGradGradGradGradGradGradGradGradGradGradGradGrad

                          Input orientation:                          
 ---------------------------------------------------------------------
 Center     Atomic      Atomic             Coordinates (Angstroms)
 Number     Number       Type             X           Y           Z
 ---------------------------------------------------------------------
      1          6           0        0.041987   -0.072639   -0.000720
      2          6           0       -0.007410   -0.005340    1.538293
      3          1           0        1.029369    0.027912   -0.448898
      4          1           0       -0.530703   -0.869924   -0.471642
      5          8           0       -1.378762   -0.007307    1.969167
      6          1           0        0.548482   -0.878862    1.922870
      7          1           0        0.532959    0.893123    1.885223
      8          1           0       -1.320446   -0.131659    2.950210
 ---------------------------------------------------------------------
                    Distance matrix (angstroms):
                    1          2          3          4          5
     1  C    0.000000
     2  C    1.541276   0.000000
     3  H    1.088989   2.241639   0.000000
     4  H    1.088762   2.249706   1.800125   0.000000
     5  O    2.429661   1.437450   3.412825   2.724125   0.000000
     6  H    2.146330   1.104516   2.584333   2.626482   2.115661
     7  H    2.174978   1.104352   2.538333   3.129619   2.114828
     8  H    3.250799   1.932234   4.135339   3.588565   0.990610
                    6          7          8
     6  H    0.000000
     7  H    1.772452   0.000000
     8  H    2.259785   2.370545   0.000000
 Stoichiometry    C2H5O(2)
 Framework group  C1[X(C2H5O)]
 Deg. of freedom    18
 Full point group                 C1      NOp   1
 Largest Abelian subgroup         C1      NOp   1
 Largest concise Abelian subgroup C1      NOp   1
                         Standard orientation:                         
 ---------------------------------------------------------------------
 Center     Atomic      Atomic             Coordinates (Angstroms)
 Number     Number       Type             X           Y           Z
 ---------------------------------------------------------------------
      1          6           0        1.284683   -0.276735   -0.100880
      2          6           0       -0.029331    0.515560    0.044600
      3          1           0        2.196443    0.317837   -0.133664
      4          1           0        1.400226   -1.149501    0.539693
      5          8           0       -1.142322   -0.386601   -0.072103
      6          1           0       -0.003518    1.015789    1.029009
      7          1           0       -0.063973    1.314489   -0.717047
      8          1           0       -1.922718    0.161247    0.196508
 ---------------------------------------------------------------------
 Rotational constants (GHZ):          39.5179701           9.4720641           8.1633364
 Standard basis: STO-3G (5D, 7F)
 There are    20 symmetry adapted cartesian basis functions of A   symmetry.
 There are    20 symmetry adapted basis functions of A   symmetry.
    20 basis functions,    60 primitive gaussians,    20 cartesian basis functions
    13 alpha electrons       12 beta electrons
       nuclear repulsion energy        73.6332022413 Hartrees.
 NAtoms=    8 NActive=    8 NUniq=    8 SFac= 1.00D+00 NAtFMM=   60 NAOKFM=F Big=F
 Integral buffers will be    131072 words long.
 Raffenetti 2 integral format.
 Two-electron integral symmetry is turned on.
 One-electron integrals computed using PRISM.
 NBasis=    20 RedAO= T EigKep=  2.32D-01  NBF=    20
 NBsUse=    20 1.00D-06 EigRej= -1.00D+00 NBFU=    20
 Initial guess from the checkpoint file:  "/mnt/lustre/scratch/nvme/SLURM/122918/uscqfafr.vWLUSxKFkO/Gau-3812917.chk"
 B after Tr=    -0.000000    0.000000    0.000000
         Rot=    0.999997    0.002081   -0.001335   -0.000156 Ang=   0.28 deg.
 Initial guess <Sx>= 0.0000 <Sy>= 0.0000 <Sz>= 0.5000 <S**2>= 0.7590 S= 0.5045
 ExpMin= 1.69D-01 ExpMax= 1.31D+02 ExpMxC= 1.31D+02 IAcc=3 IRadAn=         5 AccDes= 0.00D+00
 Harris functional with IExCor=  205 and IRadAn=       5 diagonalized for initial guess.
 HarFok:  IExCor=  205 AccDes= 0.00D+00 IRadAn=         5 IDoV= 1 UseB2=F ITyADJ=14
 ICtDFT=  3500011 ScaDFX=  1.000000  1.000000  1.000000  1.000000
 FoFCou: FMM=F IPFlag=           0 FMFlag=      100000 FMFlg1=           0
         NFxFlg=           0 DoJE=T BraDBF=F KetDBF=T FulRan=T
         wScrn=  0.000000 ICntrl=       500 IOpCl=  0 I1Cent=   200000004 NGrid=           0
         NMat0=    1 NMatS0=      1 NMatT0=    0 NMatD0=    1 NMtDS0=    0 NMtDT0=    0
 Petite list used in FoFCou.
 Keep R1 and R2 ints in memory in canonical form, NReq=854643.
 Requested convergence on RMS density matrix=1.00D-08 within 128 cycles.
 Requested convergence on MAX density matrix=1.00D-06.
 Requested convergence on             energy=1.00D-06.
 No special actions if energy rises.
 SCF Done:  E(UHF) =  -151.485936659     A.U. after   14 cycles
            NFock= 14  Conv=0.84D-08     -V/T= 2.0076
 <Sx>= 0.0000 <Sy>= 0.0000 <Sz>= 0.5000 <S**2>= 0.7617 S= 0.5058
 <L.S>=  0.00000000000    
 Annihilation of the first spin contaminant:
 S**2 before annihilation     0.7617,   after     0.7501
 Calling FoFJK, ICntrl=      2127 FMM=F ISym2X=0 I1Cent= 0 IOpClX= 1 NMat=1 NMatS=1 NMatT=0.
 ***** Axes restored to original set *****
 -------------------------------------------------------------------
 Center     Atomic                   Forces (Hartrees/Bohr)
 Number     Number              X              Y              Z
 -------------------------------------------------------------------
      1        6           0.007521643   -0.011646840    0.004444042
      2        6           0.004935739    0.000512181   -0.011633848
      3        1          -0.002092169    0.006822231    0.002965016
      4        1          -0.005559265    0.005484720    0.003376453
      5        8           0.003195115   -0.001497081   -0.000990481
      6        1          -0.003922343    0.002881877    0.002016691
      7        1          -0.004184733   -0.003648891   -0.001034915
      8        1           0.000106013    0.001091803    0.000857042
 -------------------------------------------------------------------
 Cartesian Forces:  Max     0.011646840 RMS     0.004912002

 GradGradGradGradGradGradGradGradGradGradGradGradGradGradGradGradGradGrad
 Berny optimization.
 Using GEDIIS/GDIIS optimizer.
 FormGI is forming the generalized inverse of G from B-inverse, IUseBI=4.
 Internal  Forces:  Max     0.010802662 RMS     0.003550248
 Search for a local minimum.
 Step number   2 out of a maximum of   36
 All quantities printed in internal units (Hartrees-Bohrs-Radians)
 Mixed Optimization -- RFO/linear search
 Update second derivatives using D2CorX and points    1    2
 DE= -1.51D-02 DEPred=-2.08D-02 R= 7.29D-01
 TightC=F SS=  1.41D+00  RLast= 4.22D-01 DXNew= 5.0454D-01 1.2671D+00
 Trust test= 7.29D-01 RLast= 4.22D-01 DXMaxT set to 5.05D-01
 ITU=  1  0
 Use linear search instead of GDIIS.
     Eigenvalues ---    0.00766   0.01955   0.02965   0.06561   0.07935
     Eigenvalues ---    0.11588   0.14024   0.15825   0.16000   0.17525
     Eigenvalues ---    0.22010   0.33713   0.34866   0.34928   0.37213
     Eigenvalues ---    0.39501   0.50134   0.56752
 RFO step:  Lambda=-3.65167288D-03 EMin= 7.66218125D-03
 Quartic linear search produced a step of  0.00156.
 Iteration  1 RMS(Cart)=  0.04554905 RMS(Int)=  0.00371804
 Iteration  2 RMS(Cart)=  0.00299237 RMS(Int)=  0.00230362
 Iteration  3 RMS(Cart)=  0.00000824 RMS(Int)=  0.00230361
 Iteration  4 RMS(Cart)=  0.00000004 RMS(Int)=  0.00230361
 Variable       Old X    -DE/DX   Delta X   Delta X   Delta X     New X
                                 (Linear)    (Quad)   (Total)
    R1        2.91259  -0.01080   0.00012  -0.03570  -0.03557   2.87701
    R2        2.05789  -0.00249  -0.00000  -0.00710  -0.00710   2.05079
    R3        2.05746  -0.00255  -0.00000  -0.00727  -0.00727   2.05019
    R4        2.71639  -0.00319   0.00017  -0.00991  -0.00974   2.70665
    R5        2.08723  -0.00355   0.00010  -0.01157  -0.01147   2.07576
    R6        2.08692  -0.00534   0.00010  -0.01636  -0.01626   2.07067
    R7        1.87198   0.00072   0.00012  -0.00117  -0.00105   1.87094
    A1        2.02192  -0.00084   0.00017   0.03269   0.02670   2.04862
    A2        2.03422  -0.00183   0.00019   0.02598   0.02002   2.05424
    A3        1.94607   0.00592   0.00006   0.09262   0.08536   2.03143
    A4        1.90691  -0.00040  -0.00001  -0.00288  -0.00290   1.90401
    A5        1.87236   0.00457  -0.00006   0.03992   0.03979   1.91215
    A6        1.91084  -0.00008   0.00000  -0.00090  -0.00107   1.90977
    A7        1.95487  -0.00282   0.00007  -0.02194  -0.02197   1.93290
    A8        1.95385  -0.00103   0.00007  -0.01815  -0.01821   1.93565
    A9        1.86270   0.00003  -0.00007   0.00683   0.00634   1.86904
   A10        1.81405  -0.00004  -0.00015   0.00286   0.00271   1.81676
    D1        3.03413  -0.00326  -0.00017  -0.09885  -0.10021   2.93392
    D2       -1.12633  -0.00414  -0.00012  -0.10300  -0.10438  -1.23071
    D3        0.88866  -0.00167  -0.00025  -0.07387  -0.07519   0.81347
    D4       -0.90653   0.00318   0.00022   0.11890   0.12028  -0.78625
    D5        1.21620   0.00230   0.00026   0.11475   0.11610   1.33230
    D6       -3.05200   0.00476   0.00014   0.14389   0.14530  -2.90670
    D7        2.96549   0.00230  -0.00000   0.04722   0.04711   3.01260
    D8        0.89342  -0.00139   0.00003   0.01305   0.01328   0.90670
    D9       -1.19808   0.00125   0.00004   0.03220   0.03215  -1.16593
         Item               Value     Threshold  Converged?
 Maximum Force            0.010803     0.000450     NO 
 RMS     Force            0.003550     0.000300     NO 
 Maximum Displacement     0.094947     0.001800     NO 
 RMS     Displacement     0.045142     0.001200     NO 
 Predicted change in Energy=-2.144497D-03
 GradGradGradGradGradGradGradGradGradGradGradGradGradGradGradGradGradGrad

                          Input orientation:                          
 ---------------------------------------------------------------------
 Center     Atomic      Atomic             Coordinates (Angstroms)
 Number     Number       Type             X           Y           Z
 ---------------------------------------------------------------------
      1          6           0        0.069157   -0.116990    0.015623
      2          6           0        0.008118   -0.030500    1.534389
      3          1           0        1.027191    0.074108   -0.457010
      4          1           0       -0.574905   -0.839390   -0.474644
      5          8           0       -1.362816   -0.034209    1.949116
      6          1           0        0.549665   -0.879518    1.973114
      7          1           0        0.515058    0.881832    1.868045
      8          1           0       -1.315991   -0.100029    2.935872
 ---------------------------------------------------------------------
                    Distance matrix (angstroms):
                    1          2          3          4          5
     1  C    0.000000
     2  C    1.522450   0.000000
     3  H    1.085233   2.239447   0.000000
     4  H    1.084914   2.242862   1.844316   0.000000
     5  O    2.407445   1.432296   3.393127   2.672776   0.000000
     6  H    2.155019   1.098447   2.653854   2.694028   2.091102
     7  H    2.151265   1.095749   2.514077   3.104645   2.090961
     8  H    3.232147   1.929314   4.127042   3.567560   0.990056
                    6          7          8
     6  H    0.000000
     7  H    1.764820   0.000000
     8  H    2.239460   2.336032   0.000000
 Stoichiometry    C2H5O(2)
 Framework group  C1[X(C2H5O)]
 Deg. of freedom    18
 Full point group                 C1      NOp   1
 Largest Abelian subgroup         C1      NOp   1
 Largest concise Abelian subgroup C1      NOp   1
                         Standard orientation:                         
 ---------------------------------------------------------------------
 Center     Atomic      Atomic             Coordinates (Angstroms)
 Number     Number       Type             X           Y           Z
 ---------------------------------------------------------------------
      1          6           0        1.276188   -0.264393   -0.073848
      2          6           0       -0.024854    0.516485    0.050144
      3          1           0        2.190583    0.306227   -0.200359
      4          1           0        1.360649   -1.194536    0.478183
      5          8           0       -1.128029   -0.388981   -0.070720
      6          1           0       -0.051523    1.035302    1.017978
      7          1           0       -0.063552    1.286076   -0.728893
      8          1           0       -1.919927    0.166223    0.141079
 ---------------------------------------------------------------------
 Rotational constants (GHZ):          39.7880900           9.6567643           8.2829263
 Standard basis: STO-3G (5D, 7F)
 There are    20 symmetry adapted cartesian basis functions of A   symmetry.
 There are    20 symmetry adapted basis functions of A   symmetry.
    20 basis functions,    60 primitive gaussians,    20 cartesian basis functions
    13 alpha electrons       12 beta electrons
       nuclear repulsion energy        74.1084841141 Hartrees.
 NAtoms=    8 NActive=    8 NUniq=    8 SFac= 1.00D+00 NAtFMM=   60 NAOKFM=F Big=F
 Integral buffers will be    131072 words long.
 Raffenetti 2 integral format.
 Two-electron integral symmetry is turned on.
 One-electron integrals computed using PRISM.
 NBasis=    20 RedAO= T EigKep=  2.28D-01  NBF=    20
 NBsUse=    20 1.00D-06 EigRej= -1.00D+00 NBFU=    20
 Initial guess from the checkpoint file:  "/mnt/lustre/scratch/nvme/SLURM/122918/uscqfafr.vWLUSxKFkO/Gau-3812917.chk"
 B after Tr=     0.000000   -0.000000   -0.000000
         Rot=    0.999996    0.001641    0.002168   -0.000535 Ang=   0.32 deg.
 Initial guess <Sx>= 0.0000 <Sy>= 0.0000 <Sz>= 0.5000 <S**2>= 0.7615 S= 0.5057
 ExpMin= 1.69D-01 ExpMax= 1.31D+02 ExpMxC= 1.31D+02 IAcc=3 IRadAn=         5 AccDes= 0.00D+00
 Harris functional with IExCor=  205 and IRadAn=       5 diagonalized for initial guess.
 HarFok:  IExCor=  205 AccDes= 0.00D+00 IRadAn=         5 IDoV= 1 UseB2=F ITyADJ=14
 ICtDFT=  3500011 ScaDFX=  1.000000  1.000000  1.000000  1.000000
 FoFCou: FMM=F IPFlag=           0 FMFlag=      100000 FMFlg1=           0
         NFxFlg=           0 DoJE=T BraDBF=F KetDBF=T FulRan=T
         wScrn=  0.000000 ICntrl=       500 IOpCl=  0 I1Cent=   200000004 NGrid=           0
         NMat0=    1 NMatS0=      1 NMatT0=    0 NMatD0=    1 NMtDS0=    0 NMtDT0=    0
 Petite list used in FoFCou.
 Keep R1 and R2 ints in memory in canonical form, NReq=854657.
 Requested convergence on RMS density matrix=1.00D-08 within 128 cycles.
 Requested convergence on MAX density matrix=1.00D-06.
 Requested convergence on             energy=1.00D-06.
 No special actions if energy rises.
 SCF Done:  E(UHF) =  -151.487901508     A.U. after   14 cycles
            NFock= 14  Conv=0.53D-08     -V/T= 2.0073
 <Sx>= 0.0000 <Sy>= 0.0000 <Sz>= 0.5000 <S**2>= 0.7632 S= 0.5066
 <L.S>=  0.00000000000    
 Annihilation of the first spin contaminant:
 S**2 before annihilation     0.7632,   after     0.7501
 Calling FoFJK, ICntrl=      2127 FMM=F ISym2X=0 I1Cent= 0 IOpClX= 1 NMat=1 NMatS=1 NMatT=0.
 ***** Axes restored to original set *****
 -------------------------------------------------------------------
 Center     Atomic                   Forces (Hartrees/Bohr)
 Number     Number              X              Y              Z
 -------------------------------------------------------------------
      1        6           0.002459726   -0.003115259   -0.001495173
      2        6           0.000901980    0.000632160   -0.001309460
      3        1          -0.001756664    0.000755655    0.000410855
      4        1          -0.000338897    0.002001499    0.000659222
      5        8          -0.005533681   -0.001469123   -0.000515733
      6        1           0.001711310   -0.001113572    0.000569159
      7        1           0.002147459    0.001424795    0.000795279
      8        1           0.000408767    0.000883846    0.000885852
 -------------------------------------------------------------------
 Cartesian Forces:  Max     0.005533681 RMS     0.001777700

 GradGradGradGradGradGradGradGradGradGradGradGradGradGradGradGradGradGrad
 Berny optimization.
 Using GEDIIS/GDIIS optimizer.
 FormGI is forming the generalized inverse of G from B-inverse, IUseBI=4.
 Internal  Forces:  Max     0.005014039 RMS     0.001399035
 Search for a local minimum.
 Step number   3 out of a maximum of   36
 All quantities printed in internal units (Hartrees-Bohrs-Radians)
 Mixed Optimization -- RFO/linear search
 Update second derivatives using D2CorX and points    2    3
 DE= -1.96D-03 DEPred=-2.14D-03 R= 9.16D-01
 TightC=F SS=  1.41D+00  RLast= 3.03D-01 DXNew= 8.4853D-01 9.0891D-01
 Trust test= 9.16D-01 RLast= 3.03D-01 DXMaxT set to 8.49D-01
 ITU=  1  1  0
 Use linear search instead of GDIIS.
     Eigenvalues ---    0.00762   0.01871   0.02630   0.06563   0.07893
     Eigenvalues ---    0.11783   0.13899   0.15539   0.16002   0.17271
     Eigenvalues ---    0.22051   0.32933   0.34724   0.34929   0.37215
     Eigenvalues ---    0.40244   0.53891   0.56913
 RFO step:  Lambda=-3.00635039D-04 EMin= 7.62005110D-03
 Quartic linear search produced a step of  0.17392.
 Iteration  1 RMS(Cart)=  0.01860799 RMS(Int)=  0.00081406
 Iteration  2 RMS(Cart)=  0.00045524 RMS(Int)=  0.00063937
 Iteration  3 RMS(Cart)=  0.00000023 RMS(Int)=  0.00063937
 Variable       Old X    -DE/DX   Delta X   Delta X   Delta X     New X
                                 (Linear)    (Quad)   (Total)
    R1        2.87701   0.00046  -0.00619   0.00180  -0.00439   2.87263
    R2        2.05079  -0.00160  -0.00123  -0.00505  -0.00629   2.04451
    R3        2.05019  -0.00143  -0.00126  -0.00448  -0.00574   2.04445
    R4        2.70665   0.00501  -0.00169   0.01076   0.00907   2.71572
    R5        2.07576   0.00193  -0.00199   0.00549   0.00349   2.07925
    R6        2.07067   0.00242  -0.00283   0.00724   0.00441   2.07508
    R7        1.87094   0.00084  -0.00018   0.00067   0.00049   1.87142
    A1        2.04862   0.00069   0.00464   0.00692   0.00982   2.05844
    A2        2.05424  -0.00008   0.00348   0.00125   0.00298   2.05722
    A3        2.03143   0.00024   0.01485   0.00775   0.02059   2.05202
    A4        1.90401  -0.00135  -0.00051  -0.00589  -0.00639   1.89762
    A5        1.91215   0.00025   0.00692  -0.00073   0.00619   1.91834
    A6        1.90977  -0.00010  -0.00019  -0.00246  -0.00267   1.90710
    A7        1.93290   0.00070  -0.00382   0.00528   0.00145   1.93435
    A8        1.93565   0.00120  -0.00317   0.01025   0.00706   1.94270
    A9        1.86904  -0.00068   0.00110  -0.00653  -0.00550   1.86353
   A10        1.81676  -0.00066   0.00047  -0.00244  -0.00197   1.81479
    D1        2.93392  -0.00050  -0.01743   0.00522  -0.01249   2.92143
    D2       -1.23071  -0.00033  -0.01815   0.00757  -0.01089  -1.24160
    D3        0.81347  -0.00107  -0.01308  -0.00217  -0.01552   0.79795
    D4       -0.78625   0.00105   0.02092   0.03569   0.05690  -0.72935
    D5        1.33230   0.00122   0.02019   0.03804   0.05850   1.39081
    D6       -2.90670   0.00048   0.02527   0.02830   0.05387  -2.85283
    D7        3.01260   0.00061   0.00819   0.03125   0.03944   3.05203
    D8        0.90670   0.00074   0.00231   0.03264   0.03499   0.94169
    D9       -1.16593   0.00037   0.00559   0.03082   0.03638  -1.12955
         Item               Value     Threshold  Converged?
 Maximum Force            0.005014     0.000450     NO 
 RMS     Force            0.001399     0.000300     NO 
 Maximum Displacement     0.043227     0.001800     NO 
 RMS     Displacement     0.018650     0.001200     NO 
 Predicted change in Energy=-1.660305D-04
 GradGradGradGradGradGradGradGradGradGradGradGradGradGradGradGradGradGrad

                          Input orientation:                          
 ---------------------------------------------------------------------
 Center     Atomic      Atomic             Coordinates (Angstroms)
 Number     Number       Type             X           Y           Z
 ---------------------------------------------------------------------
      1          6           0        0.078412   -0.129794    0.020131
      2          6           0        0.013807   -0.038890    1.536164
      3          1           0        1.024893    0.079512   -0.460376
      4          1           0       -0.592358   -0.819849   -0.474185
      5          8           0       -1.364936   -0.057084    1.941106
      6          1           0        0.564753   -0.878522    1.985746
      7          1           0        0.514366    0.881250    1.865664
      8          1           0       -1.323462   -0.081318    2.930255
 ---------------------------------------------------------------------
                    Distance matrix (angstroms):
                    1          2          3          4          5
     1  C    0.000000
     2  C    1.520129   0.000000
     3  H    1.081907   2.241090   0.000000
     4  H    1.081877   2.240276   1.850552   0.000000
     5  O    2.403890   1.437095   3.390731   2.648079   0.000000
     6  H    2.158880   1.100294   2.667034   2.719119   2.097726
     7  H    2.149013   1.098084   2.512744   3.097333   2.101890
     8  H    3.230545   1.932247   4.127592   3.559516   0.990314
                    6          7          8
     6  H    0.000000
     7  H    1.764584   0.000000
     8  H    2.256765   2.331846   0.000000
 Stoichiometry    C2H5O(2)
 Framework group  C1[X(C2H5O)]
 Deg. of freedom    18
 Full point group                 C1      NOp   1
 Largest Abelian subgroup         C1      NOp   1
 Largest concise Abelian subgroup C1      NOp   1
                         Standard orientation:                         
 ---------------------------------------------------------------------
 Center     Atomic      Atomic             Coordinates (Angstroms)
 Number     Number       Type             X           Y           Z
 ---------------------------------------------------------------------
      1          6           0        1.274162   -0.263779   -0.066428
      2          6           0       -0.022430    0.521110    0.050163
      3          1           0        2.191770    0.291427   -0.208777
      4          1           0        1.338219   -1.213762    0.447270
      5          8           0       -1.126318   -0.391768   -0.065278
      6          1           0       -0.053387    1.052730    1.013007
      7          1           0       -0.054229    1.287155   -0.735936
      8          1           0       -1.922220    0.172611    0.104247
 ---------------------------------------------------------------------
 Rotational constants (GHZ):          39.4474267           9.6979097           8.2837698
 Standard basis: STO-3G (5D, 7F)
 There are    20 symmetry adapted cartesian basis functions of A   symmetry.
 There are    20 symmetry adapted basis functions of A   symmetry.
    20 basis functions,    60 primitive gaussians,    20 cartesian basis functions
    13 alpha electrons       12 beta electrons
       nuclear repulsion energy        74.0809872333 Hartrees.
 NAtoms=    8 NActive=    8 NUniq=    8 SFac= 1.00D+00 NAtFMM=   60 NAOKFM=F Big=F
 Integral buffers will be    131072 words long.
 Raffenetti 2 integral format.
 Two-electron integral symmetry is turned on.
 One-electron integrals computed using PRISM.
 NBasis=    20 RedAO= T EigKep=  2.29D-01  NBF=    20
 NBsUse=    20 1.00D-06 EigRej= -1.00D+00 NBFU=    20
 Initial guess from the checkpoint file:  "/mnt/lustre/scratch/nvme/SLURM/122918/uscqfafr.vWLUSxKFkO/Gau-3812917.chk"
 B after Tr=     0.000000   -0.000000   -0.000000
         Rot=    0.999998    0.001526    0.000590    0.001122 Ang=   0.23 deg.
 Initial guess <Sx>= 0.0000 <Sy>= 0.0000 <Sz>= 0.5000 <S**2>= 0.7632 S= 0.5066
 ExpMin= 1.69D-01 ExpMax= 1.31D+02 ExpMxC= 1.31D+02 IAcc=3 IRadAn=         5 AccDes= 0.00D+00
 Harris functional with IExCor=  205 and IRadAn=       5 diagonalized for initial guess.
 HarFok:  IExCor=  205 AccDes= 0.00D+00 IRadAn=         5 IDoV= 1 UseB2=F ITyADJ=14
 ICtDFT=  3500011 ScaDFX=  1.000000  1.000000  1.000000  1.000000
 FoFCou: FMM=F IPFlag=           0 FMFlag=      100000 FMFlg1=           0
         NFxFlg=           0 DoJE=T BraDBF=F KetDBF=T FulRan=T
         wScrn=  0.000000 ICntrl=       500 IOpCl=  0 I1Cent=   200000004 NGrid=           0
         NMat0=    1 NMatS0=      1 NMatT0=    0 NMatD0=    1 NMtDS0=    0 NMtDT0=    0
 Petite list used in FoFCou.
 Keep R1 and R2 ints in memory in canonical form, NReq=854643.
 Requested convergence on RMS density matrix=1.00D-08 within 128 cycles.
 Requested convergence on MAX density matrix=1.00D-06.
 Requested convergence on             energy=1.00D-06.
 No special actions if energy rises.
 SCF Done:  E(UHF) =  -151.488127467     A.U. after   13 cycles
            NFock= 13  Conv=0.50D-08     -V/T= 2.0074
 <Sx>= 0.0000 <Sy>= 0.0000 <Sz>= 0.5000 <S**2>= 0.7637 S= 0.5068
 <L.S>=  0.00000000000    
 Annihilation of the first spin contaminant:
 S**2 before annihilation     0.7637,   after     0.7501
 Calling FoFJK, ICntrl=      2127 FMM=F ISym2X=0 I1Cent= 0 IOpClX= 1 NMat=1 NMatS=1 NMatT=0.
 ***** Axes restored to original set *****
 -------------------------------------------------------------------
 Center     Atomic                   Forces (Hartrees/Bohr)
 Number     Number              X              Y              Z
 -------------------------------------------------------------------
      1        6           0.000526288   -0.000850290    0.000382831
      2        6          -0.000646352    0.001105208    0.001097928
      3        1           0.000327528    0.000115014   -0.000999181
      4        1          -0.000511524    0.000070782   -0.000995920
      5        8          -0.000259574   -0.000807088   -0.000955936
      6        1           0.000312132   -0.000438881   -0.000132517
      7        1          -0.000010579    0.000163036    0.000682254
      8        1           0.000262081    0.000642218    0.000920540
 -------------------------------------------------------------------
 Cartesian Forces:  Max     0.001105208 RMS     0.000649663

 GradGradGradGradGradGradGradGradGradGradGradGradGradGradGradGradGradGrad
 Berny optimization.
 Using GEDIIS/GDIIS optimizer.
 FormGI is forming the generalized inverse of G from B-inverse, IUseBI=4.
 Internal  Forces:  Max     0.001662209 RMS     0.000576866
 Search for a local minimum.
 Step number   4 out of a maximum of   36
 All quantities printed in internal units (Hartrees-Bohrs-Radians)
 Mixed Optimization -- En-DIIS/RFO-DIIS
 Update second derivatives using D2CorX and points    2    3    4
 DE= -2.26D-04 DEPred=-1.66D-04 R= 1.36D+00
 TightC=F SS=  1.41D+00  RLast= 1.23D-01 DXNew= 1.4270D+00 3.6851D-01
 Trust test= 1.36D+00 RLast= 1.23D-01 DXMaxT set to 8.49D-01
 ITU=  1  1  1  0
 Use linear search instead of GDIIS.
     Eigenvalues ---    0.00637   0.01248   0.02443   0.06608   0.07973
     Eigenvalues ---    0.11815   0.14194   0.15736   0.15989   0.17861
     Eigenvalues ---    0.22395   0.34166   0.34928   0.37113   0.38186
     Eigenvalues ---    0.40703   0.54505   0.57551
 RFO step:  Lambda=-1.06419503D-04 EMin= 6.36922719D-03
 Quartic linear search produced a step of  0.37572.
 Iteration  1 RMS(Cart)=  0.01766709 RMS(Int)=  0.00054829
 Iteration  2 RMS(Cart)=  0.00040104 RMS(Int)=  0.00026595
 Iteration  3 RMS(Cart)=  0.00000020 RMS(Int)=  0.00026595
 Variable       Old X    -DE/DX   Delta X   Delta X   Delta X     New X
                                 (Linear)    (Quad)   (Total)
    R1        2.87263   0.00166  -0.00165   0.00429   0.00264   2.87527
    R2        2.04451   0.00075  -0.00236   0.00294   0.00058   2.04509
    R3        2.04445   0.00073  -0.00216   0.00281   0.00065   2.04511
    R4        2.71572  -0.00001   0.00341  -0.00258   0.00083   2.71655
    R5        2.07925   0.00044   0.00131  -0.00014   0.00117   2.08043
    R6        2.07508   0.00034   0.00166  -0.00079   0.00086   2.07594
    R7        1.87142   0.00091   0.00018   0.00101   0.00119   1.87262
    A1        2.05844   0.00070   0.00369   0.00766   0.01061   2.06904
    A2        2.05722   0.00065   0.00112   0.00696   0.00734   2.06456
    A3        2.05202  -0.00092   0.00774  -0.00053   0.00638   2.05841
    A4        1.89762   0.00013  -0.00240   0.00106  -0.00134   1.89628
    A5        1.91834  -0.00032   0.00232  -0.00093   0.00139   1.91973
    A6        1.90710   0.00050  -0.00100   0.00606   0.00506   1.91215
    A7        1.93435   0.00005   0.00055  -0.00277  -0.00222   1.93213
    A8        1.94270  -0.00029   0.00265  -0.00433  -0.00168   1.94103
    A9        1.86353  -0.00006  -0.00207   0.00103  -0.00105   1.86249
   A10        1.81479  -0.00043  -0.00074  -0.00155  -0.00229   1.81250
    D1        2.92143  -0.00016  -0.00469   0.00655   0.00176   2.92318
    D2       -1.24160  -0.00022  -0.00409   0.00324  -0.00096  -1.24256
    D3        0.79795  -0.00019  -0.00583   0.00748   0.00154   0.79949
    D4       -0.72935   0.00045   0.02138   0.03505   0.05654  -0.67281
    D5        1.39081   0.00039   0.02198   0.03174   0.05382   1.44463
    D6       -2.85283   0.00042   0.02024   0.03598   0.05632  -2.79651
    D7        3.05203   0.00013   0.01482   0.02513   0.03995   3.09198
    D8        0.94169   0.00042   0.01315   0.02733   0.04047   0.98217
    D9       -1.12955   0.00065   0.01367   0.03065   0.04431  -1.08524
         Item               Value     Threshold  Converged?
 Maximum Force            0.001662     0.000450     NO 
 RMS     Force            0.000577     0.000300     NO 
 Maximum Displacement     0.043640     0.001800     NO 
 RMS     Displacement     0.017657     0.001200     NO 
 Predicted change in Energy=-6.634493D-05
 GradGradGradGradGradGradGradGradGradGradGradGradGradGradGradGradGradGrad

                          Input orientation:                          
 ---------------------------------------------------------------------
 Center     Atomic      Atomic             Coordinates (Angstroms)
 Number     Number       Type             X           Y           Z
 ---------------------------------------------------------------------
      1          6           0        0.086794   -0.140579    0.021987
      2          6           0        0.016900   -0.044540    1.538869
      3          1           0        1.027515    0.076165   -0.467148
      4          1           0       -0.606904   -0.800349   -0.482685
      5          8           0       -1.363482   -0.080177    1.938600
      6          1           0        0.575726   -0.876301    1.994828
      7          1           0        0.503215    0.882648    1.871456
      8          1           0       -1.324288   -0.061563    2.928596
 ---------------------------------------------------------------------
                    Distance matrix (angstroms):
                    1          2          3          4          5
     1  C    0.000000
     2  C    1.521526   0.000000
     3  H    1.082214   2.249449   0.000000
     4  H    1.082223   2.246566   1.854682   0.000000
     5  O    2.404237   1.437535   3.395429   2.636983   0.000000
     6  H    2.161583   1.100914   2.678177   2.746352   2.097022
     7  H    2.154283   1.098542   2.528710   3.099487   2.101452
     8  H    3.231992   1.931428   4.132920   3.563324   0.990946
                    6          7          8
     6  H    0.000000
     7  H    1.764761   0.000000
     8  H    2.268430   2.312758   0.000000
 Stoichiometry    C2H5O(2)
 Framework group  C1[X(C2H5O)]
 Deg. of freedom    18
 Full point group                 C1      NOp   1
 Largest Abelian subgroup         C1      NOp   1
 Largest concise Abelian subgroup C1      NOp   1
                         Standard orientation:                         
 ---------------------------------------------------------------------
 Center     Atomic      Atomic             Coordinates (Angstroms)
 Number     Number       Type             X           Y           Z
 ---------------------------------------------------------------------
      1          6           0        1.275885   -0.259750   -0.061501
      2          6           0       -0.023931    0.523338    0.049372
      3          1           0        2.198345    0.287139   -0.206988
      4          1           0        1.331613   -1.230960    0.412685
      5          8           0       -1.124540   -0.395069   -0.058778
      6          1           0       -0.058658    1.061102    1.009380
      7          1           0       -0.062841    1.285213   -0.741087
      8          1           0       -1.923866    0.176528    0.069006
 ---------------------------------------------------------------------
 Rotational constants (GHZ):          39.3262911           9.7053338           8.2694089
 Standard basis: STO-3G (5D, 7F)
 There are    20 symmetry adapted cartesian basis functions of A   symmetry.
 There are    20 symmetry adapted basis functions of A   symmetry.
    20 basis functions,    60 primitive gaussians,    20 cartesian basis functions
    13 alpha electrons       12 beta electrons
       nuclear repulsion energy        74.0423565168 Hartrees.
 NAtoms=    8 NActive=    8 NUniq=    8 SFac= 1.00D+00 NAtFMM=   60 NAOKFM=F Big=F
 Integral buffers will be    131072 words long.
 Raffenetti 2 integral format.
 Two-electron integral symmetry is turned on.
 One-electron integrals computed using PRISM.
 NBasis=    20 RedAO= T EigKep=  2.30D-01  NBF=    20
 NBsUse=    20 1.00D-06 EigRej= -1.00D+00 NBFU=    20
 Initial guess from the checkpoint file:  "/mnt/lustre/scratch/nvme/SLURM/122918/uscqfafr.vWLUSxKFkO/Gau-3812917.chk"
 B after Tr=    -0.000000    0.000000    0.000000
         Rot=    1.000000    0.000471    0.000166   -0.000527 Ang=   0.08 deg.
 Initial guess <Sx>= 0.0000 <Sy>= 0.0000 <Sz>= 0.5000 <S**2>= 0.7638 S= 0.5069
 ExpMin= 1.69D-01 ExpMax= 1.31D+02 ExpMxC= 1.31D+02 IAcc=3 IRadAn=         5 AccDes= 0.00D+00
 Harris functional with IExCor=  205 and IRadAn=       5 diagonalized for initial guess.
 HarFok:  IExCor=  205 AccDes= 0.00D+00 IRadAn=         5 IDoV= 1 UseB2=F ITyADJ=14
 ICtDFT=  3500011 ScaDFX=  1.000000  1.000000  1.000000  1.000000
 FoFCou: FMM=F IPFlag=           0 FMFlag=      100000 FMFlg1=           0
         NFxFlg=           0 DoJE=T BraDBF=F KetDBF=T FulRan=T
         wScrn=  0.000000 ICntrl=       500 IOpCl=  0 I1Cent=   200000004 NGrid=           0
         NMat0=    1 NMatS0=      1 NMatT0=    0 NMatD0=    1 NMtDS0=    0 NMtDT0=    0
 Petite list used in FoFCou.
 Keep R1 and R2 ints in memory in canonical form, NReq=854643.
 Requested convergence on RMS density matrix=1.00D-08 within 128 cycles.
 Requested convergence on MAX density matrix=1.00D-06.
 Requested convergence on             energy=1.00D-06.
 No special actions if energy rises.
 SCF Done:  E(UHF) =  -151.488208547     A.U. after   13 cycles
            NFock= 13  Conv=0.27D-08     -V/T= 2.0074
 <Sx>= 0.0000 <Sy>= 0.0000 <Sz>= 0.5000 <S**2>= 0.7643 S= 0.5071
 <L.S>=  0.00000000000    
 Annihilation of the first spin contaminant:
 S**2 before annihilation     0.7643,   after     0.7501
 Calling FoFJK, ICntrl=      2127 FMM=F ISym2X=0 I1Cent= 0 IOpClX= 1 NMat=1 NMatS=1 NMatT=0.
 ***** Axes restored to original set *****
 -------------------------------------------------------------------
 Center     Atomic                   Forces (Hartrees/Bohr)
 Number     Number              X              Y              Z
 -------------------------------------------------------------------
      1        6           0.000038507    0.000362042    0.000699873
      2        6          -0.000697122    0.000184705    0.000499996
      3        1           0.000033651   -0.000317442   -0.000259694
      4        1           0.000134912    0.000047412   -0.000281457
      5        8           0.000188967   -0.000440374   -0.000293676
      6        1           0.000273055   -0.000132521   -0.000359970
      7        1           0.000067312   -0.000045904   -0.000221002
      8        1          -0.000039282    0.000342083    0.000215929
 -------------------------------------------------------------------
 Cartesian Forces:  Max     0.000699873 RMS     0.000317525

 GradGradGradGradGradGradGradGradGradGradGradGradGradGradGradGradGradGrad
 Berny optimization.
 Using GEDIIS/GDIIS optimizer.
 FormGI is forming the generalized inverse of G from B-inverse, IUseBI=4.
 Internal  Forces:  Max     0.000425765 RMS     0.000202521
 Search for a local minimum.
 Step number   5 out of a maximum of   36
 All quantities printed in internal units (Hartrees-Bohrs-Radians)
 Mixed Optimization -- En-DIIS/RFO-DIIS
 Swapping is turned off.
 Update second derivatives using D2CorX and points    2    3    4    5
 DE= -8.11D-05 DEPred=-6.63D-05 R= 1.22D+00
 TightC=F SS=  1.41D+00  RLast= 1.21D-01 DXNew= 1.4270D+00 3.6412D-01
 Trust test= 1.22D+00 RLast= 1.21D-01 DXMaxT set to 8.49D-01
 ITU=  1  1  1  1  0
     Eigenvalues ---    0.00439   0.01196   0.02578   0.06609   0.07977
     Eigenvalues ---    0.12550   0.14203   0.15720   0.16002   0.17294
     Eigenvalues ---    0.22551   0.34086   0.34932   0.37104   0.37832
     Eigenvalues ---    0.39889   0.55232   0.58570
 En-DIIS/RFO-DIIS/Sim-DIIS IScMMF=       -3 using points:     5    4
 RFO step:  Lambda=-2.78695439D-05.
 DidBck=F Rises=F RFO-DIIS coefs:    1.50175   -0.50175
 Iteration  1 RMS(Cart)=  0.00968176 RMS(Int)=  0.00016261
 Iteration  2 RMS(Cart)=  0.00011203 RMS(Int)=  0.00009855
 Iteration  3 RMS(Cart)=  0.00000002 RMS(Int)=  0.00009855
 Variable       Old X    -DE/DX   Delta X   Delta X   Delta X     New X
                                 (Linear)    (Quad)   (Total)
    R1        2.87527  -0.00015   0.00132  -0.00232  -0.00099   2.87427
    R2        2.04509   0.00008   0.00029  -0.00039  -0.00010   2.04499
    R3        2.04511   0.00002   0.00033  -0.00062  -0.00029   2.04481
    R4        2.71655  -0.00016   0.00042  -0.00033   0.00009   2.71664
    R5        2.08043   0.00009   0.00059  -0.00008   0.00051   2.08093
    R6        2.07594  -0.00008   0.00043  -0.00055  -0.00012   2.07582
    R7        1.87262   0.00022   0.00060   0.00006   0.00066   1.87328
    A1        2.06904   0.00018   0.00532  -0.00175   0.00330   2.07234
    A2        2.06456   0.00026   0.00368  -0.00064   0.00276   2.06732
    A3        2.05841  -0.00043   0.00320  -0.00353  -0.00063   2.05777
    A4        1.89628   0.00015  -0.00067   0.00088   0.00021   1.89649
    A5        1.91973  -0.00036   0.00070  -0.00291  -0.00221   1.91751
    A6        1.91215  -0.00031   0.00254  -0.00497  -0.00244   1.90972
    A7        1.93213   0.00022  -0.00111   0.00320   0.00209   1.93422
    A8        1.94103   0.00017  -0.00084   0.00286   0.00202   1.94304
    A9        1.86249   0.00012  -0.00053   0.00077   0.00023   1.86271
   A10        1.81250   0.00007  -0.00115   0.00127   0.00012   1.81262
    D1        2.92318   0.00011   0.00088   0.01265   0.01349   2.93668
    D2       -1.24256   0.00025  -0.00048   0.01535   0.01483  -1.22773
    D3        0.79949   0.00000   0.00077   0.01165   0.01239   0.81188
    D4       -0.67281   0.00002   0.02837  -0.00213   0.02627  -0.64654
    D5        1.44463   0.00017   0.02700   0.00057   0.02761   1.47223
    D6       -2.79651  -0.00008   0.02826  -0.00313   0.02517  -2.77134
    D7        3.09198   0.00020   0.02005   0.00384   0.02389   3.11587
    D8        0.98217   0.00041   0.02031   0.00488   0.02519   1.00736
    D9       -1.08524   0.00001   0.02223   0.00003   0.02226  -1.06299
         Item               Value     Threshold  Converged?
 Maximum Force            0.000426     0.000450     YES
 RMS     Force            0.000203     0.000300     YES
 Maximum Displacement     0.025751     0.001800     NO 
 RMS     Displacement     0.009691     0.001200     NO 
 Predicted change in Energy=-1.398739D-05
 GradGradGradGradGradGradGradGradGradGradGradGradGradGradGradGradGradGrad

                          Input orientation:                          
 ---------------------------------------------------------------------
 Center     Atomic      Atomic             Coordinates (Angstroms)
 Number     Number       Type             X           Y           Z
 ---------------------------------------------------------------------
      1          6           0        0.089385   -0.142446    0.023928
      2          6           0        0.017151   -0.047009    1.540212
      3          1           0        1.030628    0.068916   -0.466438
      4          1           0       -0.613452   -0.788107   -0.485986
      5          8           0       -1.363277   -0.093804    1.938799
      6          1           0        0.584071   -0.874462    1.994660
      7          1           0        0.497113    0.884115    1.870817
      8          1           0       -1.326142   -0.051900    2.928514
 ---------------------------------------------------------------------
                    Distance matrix (angstroms):
                    1          2          3          4          5
     1  C    0.000000
     2  C    1.521001   0.000000
     3  H    1.082160   2.251048   0.000000
     4  H    1.082067   2.247746   1.854149   0.000000
     5  O    2.404022   1.437582   3.397414   2.631326   0.000000
     6  H    2.159710   1.101181   2.673270   2.755925   2.098741
     7  H    2.151992   1.098479   2.532182   3.095836   2.102855
     8  H    3.232419   1.931798   4.134568   3.564931   0.991298
                    6          7          8
     6  H    0.000000
     7  H    1.765076   0.000000
     8  H    2.279826   2.306319   0.000000
 Stoichiometry    C2H5O(2)
 Framework group  C1[X(C2H5O)]
 Deg. of freedom    18
 Full point group                 C1      NOp   1
 Largest Abelian subgroup         C1      NOp   1
 Largest concise Abelian subgroup C1      NOp   1
                         Standard orientation:                         
 ---------------------------------------------------------------------
 Center     Atomic      Atomic             Coordinates (Angstroms)
 Number     Number       Type             X           Y           Z
 ---------------------------------------------------------------------
      1          6           0        1.275586   -0.258949   -0.060965
      2          6           0       -0.023976    0.523728    0.048573
      3          1           0        2.200879    0.285408   -0.197267
      4          1           0        1.327079   -1.238967    0.394867
      5          8           0       -1.124552   -0.395396   -0.054320
      6          1           0       -0.054804    1.065635    1.006689
      7          1           0       -0.061438    1.282316   -0.745023
      8          1           0       -1.924966    0.180103    0.049645
 ---------------------------------------------------------------------
 Rotational constants (GHZ):          39.3362480           9.7115382           8.2668073
 Standard basis: STO-3G (5D, 7F)
 There are    20 symmetry adapted cartesian basis functions of A   symmetry.
 There are    20 symmetry adapted basis functions of A   symmetry.
    20 basis functions,    60 primitive gaussians,    20 cartesian basis functions
    13 alpha electrons       12 beta electrons
       nuclear repulsion energy        74.0449374436 Hartrees.
 NAtoms=    8 NActive=    8 NUniq=    8 SFac= 1.00D+00 NAtFMM=   60 NAOKFM=F Big=F
 Integral buffers will be    131072 words long.
 Raffenetti 2 integral format.
 Two-electron integral symmetry is turned on.
 One-electron integrals computed using PRISM.
 NBasis=    20 RedAO= T EigKep=  2.30D-01  NBF=    20
 NBsUse=    20 1.00D-06 EigRej= -1.00D+00 NBFU=    20
 Initial guess from the checkpoint file:  "/mnt/lustre/scratch/nvme/SLURM/122918/uscqfafr.vWLUSxKFkO/Gau-3812917.chk"
 B after Tr=     0.000000   -0.000000   -0.000000
         Rot=    1.000000    0.000421   -0.000017    0.000327 Ang=   0.06 deg.
 Initial guess <Sx>= 0.0000 <Sy>= 0.0000 <Sz>= 0.5000 <S**2>= 0.7643 S= 0.5071
 ExpMin= 1.69D-01 ExpMax= 1.31D+02 ExpMxC= 1.31D+02 IAcc=3 IRadAn=         5 AccDes= 0.00D+00
 Harris functional with IExCor=  205 and IRadAn=       5 diagonalized for initial guess.
 HarFok:  IExCor=  205 AccDes= 0.00D+00 IRadAn=         5 IDoV= 1 UseB2=F ITyADJ=14
 ICtDFT=  3500011 ScaDFX=  1.000000  1.000000  1.000000  1.000000
 FoFCou: FMM=F IPFlag=           0 FMFlag=      100000 FMFlg1=           0
         NFxFlg=           0 DoJE=T BraDBF=F KetDBF=T FulRan=T
         wScrn=  0.000000 ICntrl=       500 IOpCl=  0 I1Cent=   200000004 NGrid=           0
         NMat0=    1 NMatS0=      1 NMatT0=    0 NMatD0=    1 NMtDS0=    0 NMtDT0=    0
 Petite list used in FoFCou.
 Keep R1 and R2 ints in memory in canonical form, NReq=854643.
 Requested convergence on RMS density matrix=1.00D-08 within 128 cycles.
 Requested convergence on MAX density matrix=1.00D-06.
 Requested convergence on             energy=1.00D-06.
 No special actions if energy rises.
 SCF Done:  E(UHF) =  -151.488226509     A.U. after   12 cycles
            NFock= 12  Conv=0.46D-08     -V/T= 2.0074
 <Sx>= 0.0000 <Sy>= 0.0000 <Sz>= 0.5000 <S**2>= 0.7644 S= 0.5072
 <L.S>=  0.00000000000    
 Annihilation of the first spin contaminant:
 S**2 before annihilation     0.7644,   after     0.7502
 Calling FoFJK, ICntrl=      2127 FMM=F ISym2X=0 I1Cent= 0 IOpClX= 1 NMat=1 NMatS=1 NMatT=0.
 ***** Axes restored to original set *****
 -------------------------------------------------------------------
 Center     Atomic                   Forces (Hartrees/Bohr)
 Number     Number              X              Y              Z
 -------------------------------------------------------------------
      1        6          -0.000307638    0.000456869   -0.000192623
      2        6          -0.000248874   -0.000052554    0.000148156
      3        1           0.000137941   -0.000274846    0.000057198
      4        1           0.000043946   -0.000101799   -0.000104853
      5        8           0.000566132   -0.000220320    0.000138321
      6        1          -0.000071481    0.000061675    0.000011939
      7        1          -0.000099505   -0.000015862    0.000125220
      8        1          -0.000020521    0.000146837   -0.000183359
 -------------------------------------------------------------------
 Cartesian Forces:  Max     0.000566132 RMS     0.000206854

 GradGradGradGradGradGradGradGradGradGradGradGradGradGradGradGradGradGrad
 Berny optimization.
 Using GEDIIS/GDIIS optimizer.
 FormGI is forming the generalized inverse of G from B-inverse, IUseBI=4.
 Internal  Forces:  Max     0.000534014 RMS     0.000154053
 Search for a local minimum.
 Step number   6 out of a maximum of   36
 All quantities printed in internal units (Hartrees-Bohrs-Radians)
 Mixed Optimization -- En-DIIS/RFO-DIIS
 Swapping is turned off.
 Update second derivatives using D2CorX and points    2    3    4    5    6
 DE= -1.80D-05 DEPred=-1.40D-05 R= 1.28D+00
 TightC=F SS=  1.41D+00  RLast= 6.62D-02 DXNew= 1.4270D+00 1.9860D-01
 Trust test= 1.28D+00 RLast= 6.62D-02 DXMaxT set to 8.49D-01
 ITU=  1  1  1  1  1  0
     Eigenvalues ---    0.00264   0.01305   0.02250   0.06627   0.08002
     Eigenvalues ---    0.13411   0.14298   0.15607   0.16301   0.17634
     Eigenvalues ---    0.22509   0.34549   0.34981   0.37297   0.38083
     Eigenvalues ---    0.40340   0.57246   0.60952
 En-DIIS/RFO-DIIS/Sim-DIIS IScMMF=       -3 using points:     6    5    4
 RFO step:  Lambda=-1.40616334D-05.
 DidBck=F Rises=F RFO-DIIS coefs:    2.39754   -1.62184    0.22430
 Iteration  1 RMS(Cart)=  0.01071160 RMS(Int)=  0.00012249
 Iteration  2 RMS(Cart)=  0.00011323 RMS(Int)=  0.00004351
 Iteration  3 RMS(Cart)=  0.00000002 RMS(Int)=  0.00004351
 Variable       Old X    -DE/DX   Delta X   Delta X   Delta X     New X
                                 (Linear)    (Quad)   (Total)
    R1        2.87427   0.00023  -0.00198   0.00315   0.00118   2.87545
    R2        2.04499   0.00004  -0.00027   0.00013  -0.00015   2.04484
    R3        2.04481   0.00008  -0.00056   0.00057   0.00001   2.04482
    R4        2.71664  -0.00053  -0.00006  -0.00070  -0.00077   2.71587
    R5        2.08093  -0.00008   0.00044  -0.00002   0.00042   2.08136
    R6        2.07582  -0.00002  -0.00036   0.00086   0.00050   2.07633
    R7        1.87328  -0.00018   0.00066  -0.00050   0.00016   1.87344
    A1        2.07234  -0.00017   0.00223  -0.00303  -0.00068   2.07166
    A2        2.06732   0.00013   0.00222  -0.00048   0.00185   2.06917
    A3        2.05777  -0.00005  -0.00232   0.00031  -0.00187   2.05590
    A4        1.89649   0.00010   0.00059  -0.00011   0.00048   1.89697
    A5        1.91751   0.00005  -0.00340   0.00352   0.00011   1.91762
    A6        1.90972   0.00008  -0.00454   0.00516   0.00061   1.91033
    A7        1.93422  -0.00012   0.00342  -0.00410  -0.00069   1.93353
    A8        1.94304  -0.00009   0.00319  -0.00282   0.00038   1.94342
    A9        1.86271  -0.00001   0.00056  -0.00144  -0.00090   1.86182
   A10        1.81262   0.00001   0.00068  -0.00131  -0.00063   1.81199
    D1        2.93668   0.00019   0.01846   0.00781   0.02629   2.96297
    D2       -1.22773   0.00014   0.02094   0.00486   0.02581  -1.20192
    D3        0.81188   0.00020   0.01697   0.00815   0.02515   0.83702
    D4       -0.64654  -0.00004   0.02404   0.00010   0.02412  -0.62242
    D5        1.47223  -0.00009   0.02651  -0.00284   0.02365   1.49588
    D6       -2.77134  -0.00003   0.02254   0.00045   0.02298  -2.74836
    D7        3.11587   0.00008   0.02442  -0.00309   0.02133   3.13720
    D8        1.00736   0.00002   0.02613  -0.00483   0.02131   1.02867
    D9       -1.06299   0.00018   0.02116   0.00148   0.02264  -1.04034
         Item               Value     Threshold  Converged?
 Maximum Force            0.000534     0.000450     NO 
 RMS     Force            0.000154     0.000300     YES
 Maximum Displacement     0.025984     0.001800     NO 
 RMS     Displacement     0.010708     0.001200     NO 
 Predicted change in Energy=-6.638066D-06
 GradGradGradGradGradGradGradGradGradGradGradGradGradGradGradGradGradGrad

                          Input orientation:                          
 ---------------------------------------------------------------------
 Center     Atomic      Atomic             Coordinates (Angstroms)
 Number     Number       Type             X           Y           Z
 ---------------------------------------------------------------------
      1          6           0        0.090148   -0.141238    0.023515
      2          6           0        0.017067   -0.047569    1.540493
      3          1           0        1.035839    0.055352   -0.464255
      4          1           0       -0.620504   -0.775076   -0.490400
      5          8           0       -1.362260   -0.107554    1.939659
      6          1           0        0.591446   -0.870405    1.994503
      7          1           0        0.489296    0.887291    1.872571
      8          1           0       -1.325556   -0.045497    2.928418
[...]
      2        6          -0.000019696   -0.000000117    0.000016080
      3        1           0.000008994   -0.000000179   -0.000009925
      4        1           0.000004827   -0.000000489   -0.000022851
      5        8          -0.000007927    0.000003072   -0.000017586
      6        1           0.000013966   -0.000005406   -0.000003375
      7        1           0.000003335    0.000005104   -0.000003375
      8        1           0.000010551    0.000003024    0.000011261
 -------------------------------------------------------------------
 Cartesian Forces:  Max     0.000029772 RMS     0.000011891
 FormGI is forming the generalized inverse of G from B-inverse, IUseBI=4.

 GradGradGradGradGradGradGradGradGradGradGradGradGradGradGradGradGradGrad
 Berny optimization.
 Internal  Forces:  Max     0.000028302 RMS     0.000009949
 Search for a local minimum.
 Step number   1 out of a maximum of    2
 All quantities printed in internal units (Hartrees-Bohrs-Radians)
 Second derivative matrix not updated -- analytic derivatives used.
 ITU=  0
     Eigenvalues ---    0.00089   0.00480   0.01029   0.08816   0.09268
     Eigenvalues ---    0.13063   0.14266   0.15510   0.17934   0.23978
     Eigenvalues ---    0.31789   0.41173   0.44335   0.45376   0.48018
     Eigenvalues ---    0.49316   0.54599   0.64698
 Angle between quadratic step and forces=  51.80 degrees.
 Linear search not attempted -- first point.
 Iteration  1 RMS(Cart)=  0.00014624 RMS(Int)=  0.00000002
 Iteration  2 RMS(Cart)=  0.00000002 RMS(Int)=  0.00000000
 Variable       Old X    -DE/DX   Delta X   Delta X   Delta X     New X
                                 (Linear)    (Quad)   (Total)
    R1        2.87539   0.00000   0.00000   0.00000   0.00000   2.87539
    R2        2.04550   0.00001   0.00000   0.00003   0.00003   2.04552
    R3        2.04526   0.00001   0.00000   0.00001   0.00001   2.04527
    R4        2.71508  -0.00000   0.00000  -0.00001  -0.00001   2.71506
    R5        2.08078   0.00001   0.00000   0.00002   0.00002   2.08080
    R6        2.07614   0.00000   0.00000   0.00001   0.00001   2.07615
    R7        1.87287   0.00001   0.00000   0.00002   0.00002   1.87289
    A1        2.06713  -0.00001   0.00000  -0.00003  -0.00003   2.06710
    A2        2.06500   0.00003   0.00000   0.00024   0.00024   2.06524
    A3        2.05465  -0.00002   0.00000  -0.00010  -0.00010   2.05455
    A4        1.89712   0.00001   0.00000   0.00009   0.00009   1.89721
    A5        1.91719  -0.00001   0.00000  -0.00005  -0.00005   1.91714
    A6        1.91016  -0.00001   0.00000  -0.00009  -0.00009   1.91007
    A7        1.93443   0.00001   0.00000   0.00007   0.00007   1.93449
    A8        1.94290  -0.00000   0.00000  -0.00001  -0.00001   1.94289
    A9        1.86188   0.00000   0.00000  -0.00001  -0.00001   1.86186
   A10        1.81314  -0.00002   0.00000  -0.00007  -0.00007   1.81307
    D1        3.02299  -0.00001   0.00000  -0.00022  -0.00022   3.02277
    D2       -1.14097   0.00000   0.00000  -0.00011  -0.00011  -1.14108
    D3        0.89769  -0.00000   0.00000  -0.00021  -0.00021   0.89748
    D4       -0.58605  -0.00000   0.00000   0.00000   0.00000  -0.58605
    D5        1.53318   0.00001   0.00000   0.00011   0.00011   1.53328
    D6       -2.71135  -0.00000   0.00000   0.00001   0.00001  -2.71133
    D7        3.14005   0.00000   0.00000   0.00019   0.00019   3.14024
    D8        1.03141   0.00000   0.00000   0.00015   0.00015   1.03156
    D9       -1.03793  -0.00000   0.00000   0.00013   0.00013  -1.03780
         Item               Value     Threshold  Converged?
 Maximum Force            0.000028     0.000450     YES
 RMS     Force            0.000010     0.000300     YES
 Maximum Displacement     0.000434     0.001800     YES
 RMS     Displacement     0.000146     0.001200     YES
 Predicted change in Energy=-8.439271D-09
 Optimization completed.
    -- Stationary point found.
                           ----------------------------
                           !   Optimized Parameters   !
                           ! (Angstroms and Degrees)  !
 --------------------------                            --------------------------
 ! Name  Definition              Value          Derivative Info.                !
 --------------------------------------------------------------------------------
 ! R1    R(1,2)                  1.5216         -DE/DX =    0.0                 !
 ! R2    R(1,3)                  1.0824         -DE/DX =    0.0                 !
 ! R3    R(1,4)                  1.0823         -DE/DX =    0.0                 !
 ! R4    R(2,5)                  1.4368         -DE/DX =    0.0                 !
 ! R5    R(2,6)                  1.1011         -DE/DX =    0.0                 !
 ! R6    R(2,7)                  1.0986         -DE/DX =    0.0                 !
 ! R7    R(5,8)                  0.9911         -DE/DX =    0.0                 !
 ! A1    A(2,1,3)              118.438          -DE/DX =    0.0                 !
 ! A2    A(2,1,4)              118.3159         -DE/DX =    0.0                 !
 ! A3    A(3,1,4)              117.7225         -DE/DX =    0.0                 !
 ! A4    A(1,2,5)              108.6971         -DE/DX =    0.0                 !
 ! A5    A(1,2,6)              109.8467         -DE/DX =    0.0                 !
 ! A6    A(1,2,7)              109.444          -DE/DX =    0.0                 !
 ! A7    A(5,2,6)              110.8346         -DE/DX =    0.0                 !
 ! A8    A(5,2,7)              111.3198         -DE/DX =    0.0                 !
 ! A9    A(6,2,7)              106.6777         -DE/DX =    0.0                 !
 ! A10   A(2,5,8)              103.8853         -DE/DX =    0.0                 !
 ! D1    D(3,1,2,5)            173.2044         -DE/DX =    0.0                 !
 ! D2    D(3,1,2,6)            -65.3728         -DE/DX =    0.0                 !
 ! D3    D(3,1,2,7)             51.4341         -DE/DX =    0.0                 !
 ! D4    D(4,1,2,5)            -33.5783         -DE/DX =    0.0                 !
 ! D5    D(4,1,2,6)             87.8445         -DE/DX =    0.0                 !
 ! D6    D(4,1,2,7)           -155.3487         -DE/DX =    0.0                 !
 ! D7    D(1,2,5,8)            179.9119         -DE/DX =    0.0                 !
 ! D8    D(6,2,5,8)             59.0956         -DE/DX =    0.0                 !
 ! D9    D(7,2,5,8)            -59.4688         -DE/DX =    0.0                 !
 --------------------------------------------------------------------------------
 GradGradGradGradGradGradGradGradGradGradGradGradGradGradGradGradGradGrad


 ----------------------------------------------------------------------

 Electric dipole moment (input orientation):
 (Debye = 10**-18 statcoulomb cm , SI units = C m)
                  (au)            (Debye)         (10**-30 SI)
   Tot        0.606430D+00      0.154139D+01      0.514153D+01
   x          0.481399D+00      0.122360D+01      0.408147D+01
   y         -0.438414D-02     -0.111434D-01     -0.371703D-01
   z          0.368772D+00      0.937325D+00      0.312658D+01

 Dipole polarizability, Alpha (input orientation).
 (esu units = cm**3 , SI units = C**2 m**2 J**-1)
 Alpha(0;0):
               (au)            (10**-24 esu)      (10**-40 SI)
   iso        0.122722D+02      0.181856D+01      0.202342D+01
   aniso      0.824700D+01      0.122208D+01      0.135975D+01
   xx         0.129551D+02      0.191974D+01      0.213600D+01
   yx         0.138219D+01      0.204820D+00      0.227893D+00
   yy         0.813711D+01      0.120580D+01      0.134163D+01
   zx        -0.227146D+01     -0.336595D+00     -0.374513D+00
   zy         0.926809D+00      0.137339D+00      0.152810D+00
   zz         0.157246D+02      0.233014D+01      0.259263D+01

 First dipole hyperpolarizability, Beta (input orientation).
 ||, _|_  parallel and perpendicular components, (z) with respect to z axis,
 vector components x,y,z.  Values do not include the 1/n! factor of 1/2.
 (esu units = statvolt**-1 cm**4 , SI units = C**3 m**3 J**-2)
 Beta(0;0,0):
               (au)            (10**-30 esu)      (10**-50 SI)
   || (z)     0.158255D+01      0.136720D-01      0.507423D-02
   _|_(z)     0.527517D+00      0.455734D-02      0.169141D-02
   x          0.389073D+02      0.336129D+00      0.124751D+00
   y          0.854015D+01      0.737803D-01      0.273828D-01
   z          0.791276D+01      0.683601D-01      0.253712D-01
   ||         0.812238D+01      0.701710D-01      0.260433D-01
   xxx        0.119059D+02      0.102858D+00      0.381747D-01
   xxy       -0.406831D+00     -0.351470D-02     -0.130445D-02
   yxy        0.280762D+01      0.242556D-01      0.900223D-02
   yyy        0.183760D+01      0.158754D-01      0.589200D-02
   xxz       -0.599340D+01     -0.517783D-01     -0.192170D-01
   yxz       -0.259320D+01     -0.224033D-01     -0.831474D-02
   yyz        0.101004D+00      0.872593D-03      0.323854D-03
   zxz       -0.174443D+01     -0.150705D-01     -0.559328D-02
   zyz        0.141595D+01      0.122327D-01      0.454006D-02
   zzz        0.852999D+01      0.736924D-01      0.273502D-01

 ----------------------------------------------------------------------

 Dipole orientation:
     6          0.06988945         -0.25304556          0.16380082
     6         -2.28971804         -0.05969006          1.79559384
     1          1.89168253          0.03792862          1.04723971
     1         -0.00001115         -1.43021236         -1.50726638
     8         -4.47348439         -0.20970611          0.18926331
     1         -2.30124576         -1.59030283          3.20510394
     1         -2.25306498          1.72550032          2.85488386
     1         -5.91524069         -0.07425006          1.37697000

 Electric dipole moment (dipole orientation):
 (Debye = 10**-18 statcoulomb cm , SI units = C m)
                  (au)            (Debye)         (10**-30 SI)
   Tot        0.606430D+00      0.154139D+01      0.514153D+01
   x          0.000000D+00      0.000000D+00      0.000000D+00
   y          0.000000D+00      0.000000D+00      0.000000D+00
   z          0.606430D+00      0.154139D+01      0.514153D+01

 Dipole polarizability, Alpha (dipole orientation).
 (esu units = cm**3 , SI units = C**2 m**2 J**-1)
 Alpha(0;0):
               (au)            (10**-24 esu)      (10**-40 SI)
   iso        0.122722D+02      0.181856D+01      0.202342D+01
   aniso      0.824700D+01      0.122208D+01      0.135975D+01
   xx         0.168941D+02      0.250344D+01      0.278546D+01
   yx         0.682357D-01      0.101115D-01      0.112505D-01
   yy         0.816072D+01      0.120929D+01      0.134552D+01
   zx        -0.740256D+00     -0.109695D+00     -0.122052D+00
   zy         0.168972D+01      0.250390D+00      0.278597D+00
   zz         0.117619D+02      0.174294D+01      0.193928D+01

 First dipole hyperpolarizability, Beta (dipole orientation).
 ||, _|_  parallel and perpendicular components, (z) with respect to z axis,
 vector components x,y,z.  Values do not include the 1/n! factor of 1/2.
 (esu units = statvolt**-1 cm**4 , SI units = C**3 m**3 J**-2)
 Beta(0;0,0):
               (au)            (10**-30 esu)      (10**-50 SI)
   || (z)     0.712713D+01      0.615729D-01      0.228522D-01
   _|_(z)     0.237571D+01      0.205243D-01      0.761739D-02
   x          0.174101D+02      0.150409D+00      0.558230D-01
   y          0.873593D+01      0.754716D-01      0.280106D-01
   z          0.356357D+02      0.307864D+00      0.114261D+00
   ||         0.812238D+01      0.701710D-01      0.260433D-01
   xxx        0.171864D+01      0.148477D-01      0.551057D-02
   xxy        0.332446D+01      0.287208D-01      0.106594D-01
   yxy        0.160726D+01      0.138855D-01      0.515346D-02
   yyy        0.186947D+01      0.161508D-01      0.599420D-02
   xxz        0.101364D+02      0.875703D-01      0.325008D-01
   yxz       -0.226690D+00     -0.195843D-02     -0.726851D-03
   yyz        0.224569D+01      0.194010D-01      0.720048D-02
   zxz        0.247746D+01      0.214033D-01      0.794363D-02
   zyz       -0.228196D+01     -0.197143D-01     -0.731678D-02
   zzz       -0.503496D+00     -0.434981D-02     -0.161439D-02

 ----------------------------------------------------------------------
 Unable to Open any file for archive entry.
 1\1\GINC-C206-1\Freq\UHF\STO-3G\C2H5O1(2)\USCQFAFR\03-May-2022\0\\#N G
 eom=AllCheck Guess=TCheck SCRF=Check GenChk UHF/STO-3G Freq\\--\\0,2\C
 ,0.0908218483,-0.1343962486,0.0223833689\C,0.017312045,-0.04277901,1.5
 394349322\H,1.0487552467,0.0196363747,-0.4575059455\H,-0.6358681419,-0
 .7510449468,-0.4904966273\O,-1.3605104165,-0.1201402858,1.9392966505\H
 ,0.6028104652,-0.8581321339,1.9919942585\H,0.4774590706,0.8978891059,1
 .8717409918\H,-1.3253036141,-0.0557288504,2.9276566958\\Version=ES64L-
 G16RevC.01\State=2-A\HF=-151.4882494\S2=0.764158\S2-1=0.\S2A=0.750146\
 RMSD=9.756e-10\RMSF=1.189e-05\ZeroPoint=0.0758755\Thermal=0.080252\ETo
 t=-151.4079974\HTot=-151.4070532\GTot=-151.4385066\Dipole=0.4813994,-0
 .0043841,0.3687721\DipoleDeriv=0.0022814,0.0679247,-0.0176058,0.078890
 7,-0.1044821,0.0470924,-0.0164158,0.0482783,0.0814597,0.2629762,-0.041
 8237,-0.158442,-0.0506305,0.3262849,0.0141102,-0.1482263,0.0000655,0.3
 201507,-0.0054269,-0.0247355,-0.0023145,-0.0078663,0.0531025,-0.046452
 ,0.0108144,-0.026484,-0.0452767,0.0256446,-0.0172354,0.0437908,-0.0388
 734,0.0426214,-0.0192335,0.022237,-0.0192308,-0.0344853,-0.3121254,0.0
 189325,0.0799665,0.0279138,-0.4832922,0.0319719,0.1657254,0.0370433,-0
 .0462631,-0.0604056,0.0073192,0.049092,0.0352105,-0.0511282,0.0259112,
 -0.008725,0.0422699,-0.0662651,-0.0512094,0.0014075,0.0493361,-0.03224
 36,-0.0614459,-0.0220282,-0.0072858,-0.0533622,-0.0448529,0.138265,-0.
 0117894,-0.0438233,-0.0124013,0.2783397,-0.031372,-0.0181238,-0.02858,
 -0.1644673\Polar=12.9550563,1.3821927,8.1371141,-2.271456,0.9268092,15
 .7245708\PolarDeriv=-1.7539979,0.527404,0.6264393,1.1424087,0.4969823,
 -0.3791692,0.3608847,0.6092269,1.1194606,0.4676441,0.1003614,0.9639045
 ,0.9015255,0.2898373,0.3930397,-0.2136077,0.7367158,-0.9841282,2.77779
 87,0.0978777,-1.493695,-3.052613,0.4396709,0.8793183,0.295318,-1.79590
 76,-0.79713,0.2406428,-2.2605954,0.7960701,-1.0486423,-0.0615001,-1.08
 50533,-0.6501672,0.5757639,0.586077,4.2245497,0.6068976,0.1289067,-2.0
 360639,-0.3354945,0.9266663,0.3302862,1.2445407,0.4549749,-0.1050918,-
 0.9723586,-0.2805277,-0.6561931,-0.0251532,-0.1098287,2.309971,0.24207
 16,-2.7835123,-2.4117116,-1.3105184,-0.524327,-1.5635207,-0.4157949,-0
 .3937271,-0.6880113,-1.3394424,-1.8565962,-0.5608573,-1.3128843,-0.907
 5429,-0.331789,-0.1829163,-0.3254242,-1.4621569,-1.5352906,-2.9112904,
 -6.6306066,-0.2634992,0.5347023,1.1202844,-0.0541661,-1.327121,-0.2576
 166,-1.579409,-0.1838275,0.1994606,-0.4728513,-0.370045,-0.4711686,0.0
 610838,0.1736537,-0.4348808,-0.366574,-4.2312905,2.7322604,-1.9694151,
 0.3891489,1.3745022,-0.1196892,0.1821495,-0.4727858,1.8519013,-3.44129
 69,-0.2084542,1.5372906,-0.6227098,0.380598,-0.1550268,0.3989063,1.433
 2854,-1.7735842,1.8844613,2.0904863,2.194488,0.4297613,0.976694,-0.019
 9099,0.0859991,0.3438092,1.6903298,4.5181748,0.072087,1.2396602,0.2505
 246,0.3014556,0.1173116,0.4911194,1.2125255,1.9386594,1.2070091,-1.028
 7789,0.1167654,-0.0909366,2.0383083,0.0084013,0.0258841,0.0881157,-0.6
 812395,0.1862404,-0.1054313,2.1413773,0.1703261,0.9242139,-0.0436364,0
 .0635871,-2.1949693,0.182238,7.2326741\HyperPolar=11.9059302,-0.406830
 8,2.8076157,1.8375954,-5.9934041,-2.5932026,0.1010036,-1.7444333,1.415
 9534,8.5299877\Quadrupole=-1.1752064,-0.5243303,1.6995367,0.0502429,-0
 .3098106,0.3553187\PG=C01 [X(C2H5O1)]\NImag=0\\0.74159257,0.27700910,0
 .25239695,-0.05850763,0.13379172,0.69495692,-0.11040226,-0.02500356,-0
 .00168320,0.77963918,-0.02623102,-0.07598906,-0.00801667,0.02802865,0.
 76306779,0.00410111,-0.02961740,-0.32860756,0.02285013,0.01348199,0.73
 920293,-0.38706272,-0.08004411,0.16355490,0.00622151,0.00200721,-0.007
 11256,0.38771056,-0.05887588,-0.02998836,0.00287394,0.00189581,0.00117
 561,0.00039734,0.07273475,0.02561887,0.15421656,0.01117199,-0.15017502
 ,0.03534993,0.00502788,-0.00429068,-0.16893982,-0.01347128,0.14535152,
 -0.24392072,-0.17188842,-0.11581778,0.00755711,0.00322635,0.00467053,-
 0.00828363,-0.01701037,-0.01895665,0.24388404,-0.19280698,-0.16305975,
 -0.12756567,0.00374150,0.00423312,0.00519265,0.00543166,0.00172836,-0.
 00232097,0.18468433,0.15779972,-0.11696124,-0.11566747,-0.16136747,-0.
 02482238,-0.02422245,-0.00887482,0.01389576,0.01225962,0.01338813,0.12
 774569,0.12506344,0.15714843,0.00180033,0.00075522,0.01148836,-0.38091
 949,-0.02275966,0.01284059,0.00021462,0.00024080,-0.00302302,0.0009529
 6,-0.00038556,-0.00114429,0.52866037,0.00338035,0.00364337,-0.00046988
 ,-0.01622371,-0.07281346,-0.00471610,-0.00006037,0.00048908,-0.0005575
 7,0.00015975,-0.00034367,0.00100486,0.03107902,0.05880032,0.05270616,0
 .00688667,-0.01701711,0.12154340,0.00026353,-0.14161121,-0.00168503,-0
 .00112886,-0.00765946,-0.00103220,-0.00025162,0.00414368,-0.06404299,0
 .04060790,0.77724256,0.00500168,-0.00136311,0.00035695,-0.16041189,0.1
 3267992,-0.07150825,0.00024137,0.00015841,-0.00059591,-0.00029085,-0.0
 0026326,0.00059039,-0.04269679,0.02941749,-0.01197620,0.18128634,-0.00
 323696,0.00711163,-0.00304139,0.12608216,-0.27326018,0.10033927,-0.000
 29801,0.00020266,-0.00006646,0.00046847,-0.00021216,0.00006163,-0.0003
 0951,0.01011639,-0.00217596,-0.14458531,0.27869951,-0.01828526,0.02707
 850,-0.02459796,-0.08090066,0.11427403,-0.13322504,-0.00007987,-0.0012
 5859,0.00175699,0.00116376,-0.00035840,0.00050382,0.01328650,-0.009406
 62,0.00858997,0.07808979,-0.11434159,0.13542713,0.00394766,0.00227058,
 -0.00061611,-0.12911600,-0.12186719,-0.04256490,0.00029040,0.00052798,
 -0.00039021,0.00015694,-0.00056087,0.00108137,-0.03576779,-0.03713636,
 -0.00796708,0.01335056,0.02239930,0.00696499,0.14384702,0.00127371,0.0
 0511138,0.00227077,-0.11585386,-0.34345042,-0.08995284,0.00021492,0.00
 045739,0.00010774,0.00035997,-0.00019929,0.00146654,-0.00485185,0.0070
 0789,0.00140236,-0.01599001,-0.02307728,-0.01425751,0.13409532,0.35326
 877,-0.02156240,-0.03432992,-0.01377747,-0.04458395,-0.09751770,-0.108
 31990,0.00028310,0.00039555,0.00221332,0.00228518,0.00009016,-0.005834
 18,0.01185513,0.01138549,0.00590989,0.00684167,0.01986460,0.00917124,0
 .04532635,0.09827396,0.10873405,-0.01095655,-0.00173571,0.00122450,-0.
 01256816,0.00491574,0.07672334,0.00066788,0.00032848,0.00233911,-0.000
 05585,0.00015918,-0.00038531,-0.07224421,-0.01061615,-0.08754605,0.003
 51959,-0.00052014,-0.00023926,0.00329121,0.00075179,-0.00044508,0.0883
 4610,-0.00051233,0.00077384,0.00015717,-0.00266699,-0.00296341,0.00487
 508,0.00001395,0.00031638,0.00010867,-0.00000009,0.00005367,0.00003384
 ,-0.00376846,-0.00689993,-0.04560404,-0.00005414,0.00041943,-0.0017298
 1,0.00027124,0.00088157,0.00183786,0.00671681,0.00741845,0.00429269,0.
 00068591,0.00058567,-0.02775327,-0.00329061,-0.01427373,0.00008352,-0.
 00006772,-0.00058481,-0.00005852,0.00015041,0.00089241,0.01873970,-0.0
 3784807,-0.62959832,-0.00179844,-0.00064011,0.00237385,-0.00183442,0.0
 0068896,0.00190306,0.00832874,0.04032124,0.63870185\\0.00001405,0.0000
 0501,-0.00002977,0.00001970,0.00000012,-0.00001608,-0.00000899,0.00000
 018,0.00000993,-0.00000483,0.00000049,0.00002285,0.00000793,-0.0000030
 7,0.00001759,-0.00001397,0.00000541,0.00000337,-0.00000333,-0.00000510
 ,0.00000338,-0.00001055,-0.00000302,-0.00001126\\\@
 The archive entry for this job was punched.


 One man practicing sportsmanship is far better than 50 preaching it.
 -- Knute K. Rockne
 Job cpu time:       0 days  0 hours  0 minutes  0.6 seconds.
 Elapsed time:       0 days  0 hours  0 minutes  0.5 seconds.
 File lengths (MBytes):  RWF=      6 Int=      0 D2E=      0 Chk=      1 Scr=      1
 Normal termination of Gaussian 16 at Tue May  3 16:47:54 2022.
